Generated by pymatgen.io.lammps.data.LammpsData

512  atoms

  1  atom types

0.000000 14.294840  xlo xhi
0.000000 14.294840  ylo yhi
0.000000 14.294840  zlo zhi

Masses

1  12.0107

Atoms

1    1  0.893428  2.680283  0.893428
2    1  0.893428  2.680283  4.467137
3    1  0.893428  2.680283  8.040847
4    1  0.893428  2.680283 11.614558
5    1  0.893428  6.253993  0.893428
6    1  0.893428  6.253993  4.467137
7    1  0.893428  6.253993  8.040847
8    1  0.893428  6.253993 11.614558
9    1  0.893428  9.827703  0.893428
10   1  0.893428  9.827703  4.467137
11   1  0.893428  9.827703  8.040847
12   1  0.893428  9.827703 11.614558
13   1  0.893428 13.401413  0.893428
14   1  0.893428 13.401413  4.467137
15   1  0.893428 13.401413  8.040847
16   1  0.893428 13.401413 11.614558
17   1  4.467137  2.680283  0.893428
18   1  4.467137  2.680283  4.467137
19   1  4.467137  2.680283  8.040847
20   1  4.467137  2.680283 11.614558
21   1  4.467137  6.253993  0.893428
22   1  4.467137  6.253993  4.467137
23   1  4.467137  6.253993  8.040847
24   1  4.467137  6.253993 11.614558
25   1  4.467137  9.827703  0.893428
26   1  4.467137  9.827703  4.467137
27   1  4.467137  9.827703  8.040847
28   1  4.467137  9.827703 11.614558
29   1  4.467137 13.401413  0.893428
30   1  4.467137 13.401413  4.467137
31   1  4.467137 13.401413  8.040847
32   1  4.467137 13.401413 11.614558
33   1  8.040847  2.680283  0.893428
34   1  8.040847  2.680283  4.467137
35   1  8.040847  2.680283  8.040847
36   1  8.040847  2.680283 11.614558
37   1  8.040847  6.253993  0.893428
38   1  8.040847  6.253993  4.467137
39   1  8.040847  6.253993  8.040847
40   1  8.040847  6.253993 11.614558
41   1  8.040847  9.827703  0.893428
42   1  8.040847  9.827703  4.467137
43   1  8.040847  9.827703  8.040847
44   1  8.040847  9.827703 11.614558
45   1  8.040847 13.401413  0.893428
46   1  8.040847 13.401413  4.467137
47   1  8.040847 13.401413  8.040847
48   1  8.040847 13.401413 11.614558
49   1 11.614558  2.680283  0.893428
50   1 11.614558  2.680283  4.467137
51   1 11.614558  2.680283  8.040847
52   1 11.614558  2.680283 11.614558
53   1 11.614558  6.253993  0.893428
54   1 11.614558  6.253993  4.467137
55   1 11.614558  6.253993  8.040847
56   1 11.614558  6.253993 11.614558
57   1 11.614558  9.827703  0.893428
58   1 11.614558  9.827703  4.467137
59   1 11.614558  9.827703  8.040847
60   1 11.614558  9.827703 11.614558
61   1 11.614558 13.401413  0.893428
62   1 11.614558 13.401413  4.467137
63   1 11.614558 13.401413  8.040847
64   1 11.614558 13.401413 11.614558
65   1  0.000000  0.000000  1.786855
66   1  0.000000  0.000000  5.360565
67   1  0.000000  0.000000  8.934275
68   1  0.000000  0.000000 12.507985
69   1  0.000000  3.573710  1.786855
70   1  0.000000  3.573710  5.360565
71   1  0.000000  3.573710  8.934275
72   1  0.000000  3.573710 12.507985
73   1  0.000000  7.147420  1.786855
74   1  0.000000  7.147420  5.360565
75   1  0.000000  7.147420  8.934275
76   1  0.000000  7.147420 12.507985
77   1  0.000000 10.721130  1.786855
78   1  0.000000 10.721130  5.360565
79   1  0.000000 10.721130  8.934275
80   1  0.000000 10.721130 12.507985
81   1  3.573710  0.000000  1.786855
82   1  3.573710  0.000000  5.360565
83   1  3.573710  0.000000  8.934275
84   1  3.573710  0.000000 12.507985
85   1  3.573710  3.573710  1.786855
86   1  3.573710  3.573710  5.360565
87   1  3.573710  3.573710  8.934275
88   1  3.573710  3.573710 12.507985
89   1  3.573710  7.147420  1.786855
90   1  3.573710  7.147420  5.360565
91   1  3.573710  7.147420  8.934275
92   1  3.573710  7.147420 12.507985
93   1  3.573710 10.721130  1.786855
94   1  3.573710 10.721130  5.360565
95   1  3.573710 10.721130  8.934275
96   1  3.573710 10.721130 12.507985
97   1  7.147420  0.000000  1.786855
98   1  7.147420  0.000000  5.360565
99   1  7.147420  0.000000  8.934275
100  1  7.147420  0.000000 12.507985
101  1  7.147420  3.573710  1.786855
102  1  7.147420  3.573710  5.360565
103  1  7.147420  3.573710  8.934275
104  1  7.147420  3.573710 12.507985
105  1  7.147420  7.147420  1.786855
106  1  7.147420  7.147420  5.360565
107  1  7.147420  7.147420  8.934275
108  1  7.147420  7.147420 12.507985
109  1  7.147420 10.721130  1.786855
110  1  7.147420 10.721130  5.360565
111  1  7.147420 10.721130  8.934275
112  1  7.147420 10.721130 12.507985
113  1 10.721130  0.000000  1.786855
114  1 10.721130  0.000000  5.360565
115  1 10.721130  0.000000  8.934275
116  1 10.721130  0.000000 12.507985
117  1 10.721130  3.573710  1.786855
118  1 10.721130  3.573710  5.360565
119  1 10.721130  3.573710  8.934275
120  1 10.721130  3.573710 12.507985
121  1 10.721130  7.147420  1.786855
122  1 10.721130  7.147420  5.360565
123  1 10.721130  7.147420  8.934275
124  1 10.721130  7.147420 12.507985
125  1 10.721130 10.721130  1.786855
126  1 10.721130 10.721130  5.360565
127  1 10.721130 10.721130  8.934275
128  1 10.721130 10.721130 12.507985
129  1  0.893428  0.893428  2.680283
130  1  0.893428  0.893428  6.253993
131  1  0.893428  0.893428  9.827703
132  1  0.893428  0.893428 13.401413
133  1  0.893428  4.467137  2.680283
134  1  0.893428  4.467137  6.253993
135  1  0.893428  4.467137  9.827703
136  1  0.893428  4.467137 13.401413
137  1  0.893428  8.040847  2.680283
138  1  0.893428  8.040847  6.253993
139  1  0.893428  8.040847  9.827703
140  1  0.893428  8.040847 13.401413
141  1  0.893428 11.614558  2.680283
142  1  0.893428 11.614558  6.253993
143  1  0.893428 11.614558  9.827703
144  1  0.893428 11.614558 13.401413
145  1  4.467137  0.893428  2.680283
146  1  4.467137  0.893428  6.253993
147  1  4.467137  0.893428  9.827703
148  1  4.467137  0.893428 13.401413
149  1  4.467137  4.467137  2.680283
150  1  4.467137  4.467137  6.253993
151  1  4.467137  4.467137  9.827703
152  1  4.467137  4.467137 13.401413
153  1  4.467137  8.040847  2.680283
154  1  4.467137  8.040847  6.253993
155  1  4.467137  8.040847  9.827703
156  1  4.467137  8.040847 13.401413
157  1  4.467137 11.614558  2.680283
158  1  4.467137 11.614558  6.253993
159  1  4.467137 11.614558  9.827703
160  1  4.467137 11.614558 13.401413
161  1  8.040847  0.893428  2.680283
162  1  8.040847  0.893428  6.253993
163  1  8.040847  0.893428  9.827703
164  1  8.040847  0.893428 13.401413
165  1  8.040847  4.467137  2.680283
166  1  8.040847  4.467137  6.253993
167  1  8.040847  4.467137  9.827703
168  1  8.040847  4.467137 13.401413
169  1  8.040847  8.040847  2.680283
170  1  8.040847  8.040847  6.253993
171  1  8.040847  8.040847  9.827703
172  1  8.040847  8.040847 13.401413
173  1  8.040847 11.614558  2.680283
174  1  8.040847 11.614558  6.253993
175  1  8.040847 11.614558  9.827703
176  1  8.040847 11.614558 13.401413
177  1 11.614558  0.893428  2.680283
178  1 11.614558  0.893428  6.253993
179  1 11.614558  0.893428  9.827703
180  1 11.614558  0.893428 13.401413
181  1 11.614558  4.467137  2.680283
182  1 11.614558  4.467137  6.253993
183  1 11.614558  4.467137  9.827703
184  1 11.614558  4.467137 13.401413
185  1 11.614558  8.040847  2.680283
186  1 11.614558  8.040847  6.253993
187  1 11.614558  8.040847  9.827703
188  1 11.614558  8.040847 13.401413
189  1 11.614558 11.614558  2.680283
190  1 11.614558 11.614558  6.253993
191  1 11.614558 11.614558  9.827703
192  1 11.614558 11.614558 13.401413
193  1  0.000000  1.786855  0.000000
194  1  0.000000  1.786855  3.573710
195  1  0.000000  1.786855  7.147420
196  1  0.000000  1.786855 10.721130
197  1  0.000000  5.360565  0.000000
198  1  0.000000  5.360565  3.573710
199  1  0.000000  5.360565  7.147420
200  1  0.000000  5.360565 10.721130
201  1  0.000000  8.934275  0.000000
202  1  0.000000  8.934275  3.573710
203  1  0.000000  8.934275  7.147420
204  1  0.000000  8.934275 10.721130
205  1  0.000000 12.507985  0.000000
206  1  0.000000 12.507985  3.573710
207  1  0.000000 12.507985  7.147420
208  1  0.000000 12.507985 10.721130
209  1  3.573710  1.786855  0.000000
210  1  3.573710  1.786855  3.573710
211  1  3.573710  1.786855  7.147420
212  1  3.573710  1.786855 10.721130
213  1  3.573710  5.360565  0.000000
214  1  3.573710  5.360565  3.573710
215  1  3.573710  5.360565  7.147420
216  1  3.573710  5.360565 10.721130
217  1  3.573710  8.934275  0.000000
218  1  3.573710  8.934275  3.573710
219  1  3.573710  8.934275  7.147420
220  1  3.573710  8.934275 10.721130
221  1  3.573710 12.507985  0.000000
222  1  3.573710 12.507985  3.573710
223  1  3.573710 12.507985  7.147420
224  1  3.573710 12.507985 10.721130
225  1  7.147420  1.786855  0.000000
226  1  7.147420  1.786855  3.573710
227  1  7.147420  1.786855  7.147420
228  1  7.147420  1.786855 10.721130
229  1  7.147420  5.360565  0.000000
230  1  7.147420  5.360565  3.573710
231  1  7.147420  5.360565  7.147420
232  1  7.147420  5.360565 10.721130
233  1  7.147420  8.934275  0.000000
234  1  7.147420  8.934275  3.573710
235  1  7.147420  8.934275  7.147420
236  1  7.147420  8.934275 10.721130
237  1  7.147420 12.507985  0.000000
238  1  7.147420 12.507985  3.573710
239  1  7.147420 12.507985  7.147420
240  1  7.147420 12.507985 10.721130
241  1 10.721130  1.786855  0.000000
242  1 10.721130  1.786855  3.573710
243  1 10.721130  1.786855  7.147420
244  1 10.721130  1.786855 10.721130
245  1 10.721130  5.360565  0.000000
246  1 10.721130  5.360565  3.573710
247  1 10.721130  5.360565  7.147420
248  1 10.721130  5.360565 10.721130
249  1 10.721130  8.934275  0.000000
250  1 10.721130  8.934275  3.573710
251  1 10.721130  8.934275  7.147420
252  1 10.721130  8.934275 10.721130
253  1 10.721130 12.507985  0.000000
254  1 10.721130 12.507985  3.573710
255  1 10.721130 12.507985  7.147420
256  1 10.721130 12.507985 10.721130
257  1  2.680283  2.680283  2.680283
258  1  2.680283  2.680283  6.253993
259  1  2.680283  2.680283  9.827703
260  1  2.680283  2.680283 13.401413
261  1  2.680283  6.253993  2.680283
262  1  2.680283  6.253993  6.253993
263  1  2.680283  6.253993  9.827703
264  1  2.680283  6.253993 13.401413
265  1  2.680283  9.827703  2.680283
266  1  2.680283  9.827703  6.253993
267  1  2.680283  9.827703  9.827703
268  1  2.680283  9.827703 13.401413
269  1  2.680283 13.401413  2.680283
270  1  2.680283 13.401413  6.253993
271  1  2.680283 13.401413  9.827703
272  1  2.680283 13.401413 13.401413
273  1  6.253993  2.680283  2.680283
274  1  6.253993  2.680283  6.253993
275  1  6.253993  2.680283  9.827703
276  1  6.253993  2.680283 13.401413
277  1  6.253993  6.253993  2.680283
278  1  6.253993  6.253993  6.253993
279  1  6.253993  6.253993  9.827703
280  1  6.253993  6.253993 13.401413
281  1  6.253993  9.827703  2.680283
282  1  6.253993  9.827703  6.253993
283  1  6.253993  9.827703  9.827703
284  1  6.253993  9.827703 13.401413
285  1  6.253993 13.401413  2.680283
286  1  6.253993 13.401413  6.253993
287  1  6.253993 13.401413  9.827703
288  1  6.253993 13.401413 13.401413
289  1  9.827703  2.680283  2.680283
290  1  9.827703  2.680283  6.253993
291  1  9.827703  2.680283  9.827703
292  1  9.827703  2.680283 13.401413
293  1  9.827703  6.253993  2.680283
294  1  9.827703  6.253993  6.253993
295  1  9.827703  6.253993  9.827703
296  1  9.827703  6.253993 13.401413
297  1  9.827703  9.827703  2.680283
298  1  9.827703  9.827703  6.253993
299  1  9.827703  9.827703  9.827703
300  1  9.827703  9.827703 13.401413
301  1  9.827703 13.401413  2.680283
302  1  9.827703 13.401413  6.253993
303  1  9.827703 13.401413  9.827703
304  1  9.827703 13.401413 13.401413
305  1 13.401413  2.680283  2.680283
306  1 13.401413  2.680283  6.253993
307  1 13.401413  2.680283  9.827703
308  1 13.401413  2.680283 13.401413
309  1 13.401413  6.253993  2.680283
310  1 13.401413  6.253993  6.253993
311  1 13.401413  6.253993  9.827703
312  1 13.401413  6.253993 13.401413
313  1 13.401413  9.827703  2.680283
314  1 13.401413  9.827703  6.253993
315  1 13.401413  9.827703  9.827703
316  1 13.401413  9.827703 13.401413
317  1 13.401413 13.401413  2.680283
318  1 13.401413 13.401413  6.253993
319  1 13.401413 13.401413  9.827703
320  1 13.401413 13.401413 13.401413
321  1  1.786855  0.000000  0.000000
322  1  1.786855  0.000000  3.573710
323  1  1.786855  0.000000  7.147420
324  1  1.786855  0.000000 10.721130
325  1  1.786855  3.573710  0.000000
326  1  1.786855  3.573710  3.573710
327  1  1.786855  3.573710  7.147420
328  1  1.786855  3.573710 10.721130
329  1  1.786855  7.147420  0.000000
330  1  1.786855  7.147420  3.573710
331  1  1.786855  7.147420  7.147420
332  1  1.786855  7.147420 10.721130
333  1  1.786855 10.721130  0.000000
334  1  1.786855 10.721130  3.573710
335  1  1.786855 10.721130  7.147420
336  1  1.786855 10.721130 10.721130
337  1  5.360565  0.000000  0.000000
338  1  5.360565  0.000000  3.573710
339  1  5.360565  0.000000  7.147420
340  1  5.360565  0.000000 10.721130
341  1  5.360565  3.573710  0.000000
342  1  5.360565  3.573710  3.573710
343  1  5.360565  3.573710  7.147420
344  1  5.360565  3.573710 10.721130
345  1  5.360565  7.147420  0.000000
346  1  5.360565  7.147420  3.573710
347  1  5.360565  7.147420  7.147420
348  1  5.360565  7.147420 10.721130
349  1  5.360565 10.721130  0.000000
350  1  5.360565 10.721130  3.573710
351  1  5.360565 10.721130  7.147420
352  1  5.360565 10.721130 10.721130
353  1  8.934275  0.000000  0.000000
354  1  8.934275  0.000000  3.573710
355  1  8.934275  0.000000  7.147420
356  1  8.934275  0.000000 10.721130
357  1  8.934275  3.573710  0.000000
358  1  8.934275  3.573710  3.573710
359  1  8.934275  3.573710  7.147420
360  1  8.934275  3.573710 10.721130
361  1  8.934275  7.147420  0.000000
362  1  8.934275  7.147420  3.573710
363  1  8.934275  7.147420  7.147420
364  1  8.934275  7.147420 10.721130
365  1  8.934275 10.721130  0.000000
366  1  8.934275 10.721130  3.573710
367  1  8.934275 10.721130  7.147420
368  1  8.934275 10.721130 10.721130
369  1 12.507985  0.000000  0.000000
370  1 12.507985  0.000000  3.573710
371  1 12.507985  0.000000  7.147420
372  1 12.507985  0.000000 10.721130
373  1 12.507985  3.573710  0.000000
374  1 12.507985  3.573710  3.573710
375  1 12.507985  3.573710  7.147420
376  1 12.507985  3.573710 10.721130
377  1 12.507985  7.147420  0.000000
378  1 12.507985  7.147420  3.573710
379  1 12.507985  7.147420  7.147420
380  1 12.507985  7.147420 10.721130
381  1 12.507985 10.721130  0.000000
382  1 12.507985 10.721130  3.573710
383  1 12.507985 10.721130  7.147420
384  1 12.507985 10.721130 10.721130
385  1  2.680283  0.893428  0.893428
386  1  2.680283  0.893428  4.467137
387  1  2.680283  0.893428  8.040847
388  1  2.680283  0.893428 11.614558
389  1  2.680283  4.467137  0.893428
390  1  2.680283  4.467137  4.467137
391  1  2.680283  4.467137  8.040847
392  1  2.680283  4.467137 11.614558
393  1  2.680283  8.040847  0.893428
394  1  2.680283  8.040847  4.467137
395  1  2.680283  8.040847  8.040847
396  1  2.680283  8.040847 11.614558
397  1  2.680283 11.614558  0.893428
398  1  2.680283 11.614558  4.467137
399  1  2.680283 11.614558  8.040847
400  1  2.680283 11.614558 11.614558
401  1  6.253993  0.893428  0.893428
402  1  6.253993  0.893428  4.467137
403  1  6.253993  0.893428  8.040847
404  1  6.253993  0.893428 11.614558
405  1  6.253993  4.467137  0.893428
406  1  6.253993  4.467137  4.467137
407  1  6.253993  4.467137  8.040847
408  1  6.253993  4.467137 11.614558
409  1  6.253993  8.040847  0.893428
410  1  6.253993  8.040847  4.467137
411  1  6.253993  8.040847  8.040847
412  1  6.253993  8.040847 11.614558
413  1  6.253993 11.614558  0.893428
414  1  6.253993 11.614558  4.467137
415  1  6.253993 11.614558  8.040847
416  1  6.253993 11.614558 11.614558
417  1  9.827703  0.893428  0.893428
418  1  9.827703  0.893428  4.467137
419  1  9.827703  0.893428  8.040847
420  1  9.827703  0.893428 11.614558
421  1  9.827703  4.467137  0.893428
422  1  9.827703  4.467137  4.467137
423  1  9.827703  4.467137  8.040847
424  1  9.827703  4.467137 11.614558
425  1  9.827703  8.040847  0.893428
426  1  9.827703  8.040847  4.467137
427  1  9.827703  8.040847  8.040847
428  1  9.827703  8.040847 11.614558
429  1  9.827703 11.614558  0.893428
430  1  9.827703 11.614558  4.467137
431  1  9.827703 11.614558  8.040847
432  1  9.827703 11.614558 11.614558
433  1 13.401413  0.893428  0.893428
434  1 13.401413  0.893428  4.467137
435  1 13.401413  0.893428  8.040847
436  1 13.401413  0.893428 11.614558
437  1 13.401413  4.467137  0.893428
438  1 13.401413  4.467137  4.467137
439  1 13.401413  4.467137  8.040847
440  1 13.401413  4.467137 11.614558
441  1 13.401413  8.040847  0.893428
442  1 13.401413  8.040847  4.467137
443  1 13.401413  8.040847  8.040847
444  1 13.401413  8.040847 11.614558
445  1 13.401413 11.614558  0.893428
446  1 13.401413 11.614558  4.467137
447  1 13.401413 11.614558  8.040847
448  1 13.401413 11.614558 11.614558
449  1  1.786855  1.786855  1.786855
450  1  1.786855  1.786855  5.360565
451  1  1.786855  1.786855  8.934275
452  1  1.786855  1.786855 12.507985
453  1  1.786855  5.360565  1.786855
454  1  1.786855  5.360565  5.360565
455  1  1.786855  5.360565  8.934275
456  1  1.786855  5.360565 12.507985
457  1  1.786855  8.934275  1.786855
458  1  1.786855  8.934275  5.360565
459  1  1.786855  8.934275  8.934275
460  1  1.786855  8.934275 12.507985
461  1  1.786855 12.507985  1.786855
462  1  1.786855 12.507985  5.360565
463  1  1.786855 12.507985  8.934275
464  1  1.786855 12.507985 12.507985
465  1  5.360565  1.786855  1.786855
466  1  5.360565  1.786855  5.360565
467  1  5.360565  1.786855  8.934275
468  1  5.360565  1.786855 12.507985
469  1  5.360565  5.360565  1.786855
470  1  5.360565  5.360565  5.360565
471  1  5.360565  5.360565  8.934275
472  1  5.360565  5.360565 12.507985
473  1  5.360565  8.934275  1.786855
474  1  5.360565  8.934275  5.360565
475  1  5.360565  8.934275  8.934275
476  1  5.360565  8.934275 12.507985
477  1  5.360565 12.507985  1.786855
478  1  5.360565 12.507985  5.360565
479  1  5.360565 12.507985  8.934275
480  1  5.360565 12.507985 12.507985
481  1  8.934275  1.786855  1.786855
482  1  8.934275  1.786855  5.360565
483  1  8.934275  1.786855  8.934275
484  1  8.934275  1.786855 12.507985
485  1  8.934275  5.360565  1.786855
486  1  8.934275  5.360565  5.360565
487  1  8.934275  5.360565  8.934275
488  1  8.934275  5.360565 12.507985
489  1  8.934275  8.934275  1.786855
490  1  8.934275  8.934275  5.360565
491  1  8.934275  8.934275  8.934275
492  1  8.934275  8.934275 12.507985
493  1  8.934275 12.507985  1.786855
494  1  8.934275 12.507985  5.360565
495  1  8.934275 12.507985  8.934275
496  1  8.934275 12.507985 12.507985
497  1 12.507985  1.786855  1.786855
498  1 12.507985  1.786855  5.360565
499  1 12.507985  1.786855  8.934275
500  1 12.507985  1.786855 12.507985
501  1 12.507985  5.360565  1.786855
502  1 12.507985  5.360565  5.360565
503  1 12.507985  5.360565  8.934275
504  1 12.507985  5.360565 12.507985
505  1 12.507985  8.934275  1.786855
506  1 12.507985  8.934275  5.360565
507  1 12.507985  8.934275  8.934275
508  1 12.507985  8.934275 12.507985
509  1 12.507985 12.507985  1.786855
510  1 12.507985 12.507985  5.360565
511  1 12.507985 12.507985  8.934275
512  1 12.507985 12.507985 12.507985
