LAMMPS data file via write_data, version 8 Apr 2021, timestep = 43

191 atoms
1 atom types

0 12 xlo xhi
0 12 ylo yhi
0 12 zlo zhi

Masses

1 12.0107

Atoms # atomic

12 1 1.0896563706721603 1.126831274122467 4.4949951794041825 0 0 0
13 1 1.19206996410862 1.7423928924831809 5.792642389729308 0 0 0
11 1 0.05575564831659539 1.46385436448607 6.680112467535255 0 0 0
17 1 2.480933941990148 2.4338974354123084 6.069589760904424 0 0 0
32 1 1.491880265901676 0.8658669451373335 8.31491871651935 0 0 0
31 1 2.8805703533007696 1.1673049510076556 8.371502488229613 0 0 0
28 1 0.8161568393574861 0.4973889990367597 9.630797783227882 0 0 0
29 1 0.3166583261348049 1.8951308011682648 10.011804673119311 0 0 0
30 1 1.3508913226193449 2.7316594382923354 10.48414025293984 0 0 0
38 1 2.6442758142674347 2.1720963338767953 10.516604220226464 0 0 0
36 1 2.6845473784903384 0.922769659136409 11.184874867546002 0 0 0
4 1 2.7377695230606167 3.4964970902441865 0.7110090104403278 0 0 0
6 1 1.451557477914083 3.924560792413808 0.4079230565042298 0 0 0
7 1 0.7233934578746698 4.315223348114838 1.5002422435030809 0 0 0
45 1 1.567921765111017 4.972125296747247 2.4203176217393474 0 0 0
14 1 2.3013447821735307 3.8201231220679452 6.493157283783065 0 0 0
22 1 0.926940352075347 4.245891627386795 6.769311463310735 0 0 0
63 1 0.8579172114312772 5.201157027642886 7.841549392564089 0 0 0
66 1 1.7721682096144868 4.997418501570471 8.92006198406247 0 0 0
34 1 1.1893768923989352 3.969407999385941 11.063106490336382 0 0 0
64 1 1.3797791007223386 5.245663197996576 10.354937265097593 0 0 0
39 1 0.6817016842592831 7.499175447894299 0.7901005513752833 0 0 0
41 1 2.1513298325140644 7.302528523276509 2.8108314967138397 0 0 0
42 1 1.9714237346895735 7.475128790111183 1.4520178149827303 0 0 0
168 1 0.06257954780131596 6.355224260075781 0.21678732934362788 1 0 1
40 1 1.6914741198478873 6.054860299139098 3.2564607039663285 0 0 0
50 1 2.5078456195415 8.41008221271075 3.6435412347373766 0 0 0
52 1 1.1812228380214063 6.652414592471104 5.445477585646834 0 0 0
53 1 0.747934359916887 6.0550098229785405 4.279129390673673 0 0 0
54 1 2.612592611987511 6.893868407318626 5.584627477160407 0 0 0
60 1 2.967917450976086 8.09101258276942 4.931053423155839 0 0 0
59 1 0.15392505791646577 7.025685724573617 6.364500771788854 0 0 0
67 1 1.774580685863835 7.388513963071649 8.115890711406488 0 0 0
71 1 0.6964617380076368 6.587634563977436 7.5961369433181956 0 0 0
108 1 1.3863591709765535 8.661161288268769 8.537001909565605 0 0 0
75 1 1.7143657233992058 8.362733728953481 10.856134034461828 0 0 0
80 1 0.6755346562781888 8.524608382411044 11.789643221438025 0 0 0
76 1 2.6904280510543352 7.394419227980352 11.264047186623092 0 0 0
79 1 0.16776226817621379 6.093891227022978 10.797354674146462 0 0 0
77 1 2.539570179315231 6.06853073358754 10.871811220468597 0 0 0
89 1 1.8949621731502844 10.235674261301735 0.9047065433988161 0 0 0
84 1 1.3645936136185002 9.98381060207557 2.1451811690439855 0 0 0
96 1 1.4834179205914033 10.828767744578869 5.110328896465793 0 0 0
83 1 2.325432386891497 9.728611633900837 3.184391292909025 0 0 0
21 1 1.830136186742147 11.94538299327357 4.389799288572594 0 -1 0
109 1 0.3777160565451146 9.464608367293508 8.071283304632502 0 0 0
103 1 2.072603295614909 11.913992595676874 10.398107558395218 0 0 0
107 1 1.9533848106189509 9.072443382620438 9.725952669750487 0 0 0
1 1 3.083900028832664 1.7170399777725656 2.2149593747383682 0 0 0
16 1 3.8625671035020437 0.32146439847518943 5.285922028399188 0 0 0
18 1 3.7536618070199412 1.676403979197794 5.8811766210512975 0 0 0
3 1 3.8818335958658703 0.9808169619237732 3.0556834003777884 0 0 0
2 1 5.254775129720591 1.2715157596320734 3.119343214288182 0 0 0
9 1 5.651111535198846 2.8670050149027038 7.131797437908798 0 0 0
10 1 5.195201388871664 1.9614542568238111 6.176090209652056 0 0 0
26 1 5.693327878887451 0.9358609866614276 8.65647673217294 0 0 0
24 1 5.621628398791245 2.4397267993495118 8.554331372035701 0 0 0
25 1 3.2940837237114224 2.2261456786145675 9.259403749913886 0 0 0
5 1 3.2989371422665217 3.0231141089084206 1.8671744104825316 0 0 0
8 1 4.102423077962308 3.8717780695092556 2.617705797643453 0 0 0
46 1 4.948574571835326 4.815770867854287 2.0706857882325167 0 0 0
48 1 4.845154718531264 5.058303049158336 0.7018113929133246 0 0 0
58 1 5.859621767315619 4.862434452889296 5.691819504534237 0 0 0
51 1 3.6593657931729426 5.960192701565493 5.984078218425476 0 0 0
70 1 3.216923361053826 5.291374580075404 8.417028750251253 0 0 0
57 1 3.2447475590643635 4.878357601060487 6.889828495109965 0 0 0
27 1 4.357727585402693 3.1163138927145693 9.062511149734735 0 0 0
68 1 4.266768248860405 4.55869063884158 9.25329466864692 0 0 0
69 1 5.049130052174955 5.202494531859434 10.295114663459723 0 0 0
78 1 5.321417743129795 4.507625405540711 11.516901120045809 0 0 0
43 1 3.0773160493023837 7.712870724017656 0.5771963025647352 0 0 0
47 1 5.294862936209041 7.890123961799066 2.514792568400789 0 0 0
90 1 3.912040019841532 8.833768752907764 0.7542662507400467 0 0 0
82 1 5.172368071962166 8.736141185259878 1.3707184092377687 0 0 0
92 1 5.157201320326938 8.596598116617452 3.7196651352298655 0 0 0
55 1 5.972889095751848 7.2662378435738315 5.693333681177438 0 0 0
56 1 5.095009517192177 6.078219162307843 5.686219319908178 0 0 0
61 1 5.825115980960365 8.182773392117637 6.807572268565887 0 0 0
62 1 5.655954856356898 7.513256987374203 8.104053241119365 0 0 0
65 1 3.1450778480073494 6.876295419335659 8.367395070876281 0 0 0
73 1 4.2687690339341335 7.742053121748633 8.584686029335831 0 0 0
72 1 5.579888781738235 6.515029279035775 10.23670200586409 0 0 0
81 1 5.448728991891495 7.707181178191974 11.033250874127887 0 0 0
85 1 3.3190878963484103 10.133190440675547 0.8261699200455176 0 0 0
88 1 3.918912111799062 10.905336793268937 1.862803382494861 0 0 0
94 1 5.13619289801833 11.705319420825735 5.46578556658651 0 0 0
97 1 5.441132558294675 10.327126918076003 5.43565354913087 0 0 0
87 1 3.3707352310424676 10.729386116808367 3.1713583056641337 0 0 0
95 1 5.822252066204751 9.71633782626836 4.227017208928385 0 0 0
20 1 3.2371427553640104 11.995895156467846 3.9715568510623305 0 -1 0
93 1 5.552723698888519 9.652133607422229 6.67730658756754 0 0 0
100 1 5.393404855654346 10.529444358722552 7.832522366100348 0 0 0
106 1 4.922619917279938 11.872003940102426 8.094243196811483 0 0 0
33 1 3.590781456807669 11.95273508295134 8.525620818844429 0 -1 0
98 1 3.002017013337147 11.167958067486646 9.567084144374398 0 0 0
102 1 4.21558474584068 9.043798406687737 9.194688467998292 0 0 0
99 1 3.1164998669393125 9.789028523665946 9.606125965956414 0 0 0
101 1 5.3930651189065095 9.785509079876213 9.022131944540536 0 0 0
114 1 8.182999218083072 0.9178782947943942 0.42595363017862964 0 0 0
15 1 6.143666639361047 0.8718518867093296 5.48260373999485 0 0 0
121 1 7.445340433730138 0.18672203759149975 5.7255400334035755 0 0 0
19 1 6.1809867184628065 1.4350827753447981 4.0690664367584075 0 0 0
123 1 8.760558162841331 1.0702108506581993 5.942222818305791 0 0 0
129 1 8.024233982071157 0.5344815094236472 9.888739373938046 0 0 0
130 1 8.082674923205822 1.5842106230583106 11.112002693056448 0 0 0
134 1 6.930951808864413 2.5854121700763524 10.786856902548555 0 0 0
137 1 6.544242473158479 0.5492505074564245 9.687955646820418 0 0 0
35 1 6.759096085045062 2.9861325015522846 9.409711033097702 0 0 0
44 1 6.033511672543099 5.344613155921051 2.7350436970242726 0 0 0
147 1 8.31161564911855 4.193092097987947 2.911559433046795 0 0 0
141 1 7.031919790251421 4.627026845695516 3.4169575794370246 0 0 0
150 1 8.189407102539308 4.607155363885435 5.51016235899625 0 0 0
156 1 6.957282648329365 4.673270424804548 4.822275507187807 0 0 0
151 1 8.379906780079436 5.184826722312353 6.907441734601222 0 0 0
166 1 7.234117895357522 4.594974616067624 7.669513005721297 0 0 0
167 1 7.413758992886265 4.157730626626373 8.992819448018116 0 0 0
23 1 6.097219564666121 4.174560988863589 6.908650320922633 0 0 0
165 1 8.314835947659109 4.861426426067161 9.801540009225095 0 0 0
37 1 6.1528633365358845 3.373154672189831 11.63911168727702 0 0 0
49 1 6.285998894856592 6.772161840147364 2.4811402106074727 0 0 0
140 1 7.769671521778958 7.772853891870162 0.6284147290899179 0 0 0
142 1 8.51231626532052 7.508464846403051 2.7580394203081706 0 0 0
145 1 6.883825052774328 6.75946432244789 1.0678013465178735 0 0 0
171 1 8.195097207015003 8.558189451107166 1.8058164286779745 0 0 0
144 1 7.333754233331254 7.186145489750031 3.504697480672357 0 0 0
148 1 7.220663739547076 7.27265486683467 4.906797423939592 0 0 0
154 1 8.46849997813694 7.2251485590614655 5.608524453330518 0 0 0
153 1 8.419010002345447 6.665091207653395 6.894708016766599 0 0 0
162 1 8.680944976883238 7.627000412275336 7.899443283951757 0 0 0
74 1 6.556284021547029 6.962700307538267 9.209669677737852 0 0 0
110 1 6.436057986460536 8.753358039277956 10.89916564695372 0 0 0
160 1 7.894811997538479 7.275148394631657 9.993210438940363 0 0 0
188 1 7.805584786677173 8.221622952747165 11.220675799148806 0 0 0
91 1 6.17321553743502 9.770109716273408 1.2589731682866059 0 0 0
169 1 7.268558770179698 9.646747780934833 2.1962417422074143 0 0 0
86 1 6.098019942291409 10.830646265524457 0.3993284743833002 0 0 0
174 1 7.620062969309167 11.287598777563362 4.134436785486293 0 0 0
170 1 6.947596450061195 10.239369140466769 3.5050475108583727 0 0 0
179 1 8.937361941182113 11.43416976072113 4.03630651526046 0 0 0
177 1 8.360087732202556 9.763969326019904 6.559078361964042 0 0 0
178 1 7.8006549440034805 11.070522287986721 6.638948285504096 0 0 0
184 1 8.296422809519186 9.033136574789237 7.85502439580899 0 0 0
185 1 8.150299631297425 11.610418421497359 7.858764668691712 0 0 0
104 1 6.55195726408062 9.55283315540179 9.732573213475156 0 0 0
180 1 7.813789193582805 9.808799200663264 9.083058073767614 0 0 0
181 1 8.272842313011894 11.191010622408246 9.20848687653973 0 0 0
191 1 8.84797729024398 9.275725432882306 11.206021553807103 0 0 0
115 1 9.957525913963549 1.4836796698291839 2.3158959984569996 0 0 0
116 1 11.36608981351915 1.3584080247618775 2.5253889194119474 0 0 0
112 1 9.132976769260042 0.8798822349471165 1.367059630752822 0 0 0
111 1 9.31226752803297 1.9145471434902481 3.524919301947154 0 0 0
118 1 11.859863832764825 1.0853654564680182 3.8319374291738066 0 0 0
120 1 9.472873884695797 0.8451313527627841 4.559662626124207 0 0 0
126 1 10.912740211704142 0.4218955693256656 4.638688176424183 0 0 0
127 1 9.53227509193861 1.2276713067719964 7.329952118388991 0 0 0
131 1 9.127220391048034 1.4698476029269443 8.776238630360078 0 0 0
189 1 10.931583175440224 0.7205194637553177 7.249190631694322 0 1 0
135 1 9.904742912538508 2.1555217811387966 9.744751222174777 0 0 0
136 1 9.332742948002409 2.4812662535821435 11.033547968221708 0 0 0
132 1 11.194996887171117 2.603098765536207 9.51716567579376 0 0 0
113 1 9.735700851653975 3.4229240685456723 0.07069478316670119 0 0 0
117 1 11.390580180280363 4.103671065419387 1.921899336994154 0 0 0
119 1 10.108039677592103 4.22817655453729 1.230694567156846 0 0 0
139 1 9.138977745929349 5.0228034717190795 2.0465612113036853 0 0 0
157 1 11.47679476916229 5.606914002013372 3.8895833600918044 0 0 0
124 1 9.319171241317909 3.845110293313964 5.0608008479134865 0 0 0
146 1 11.324195072107653 4.308192556613269 3.3426525133828826 0 0 0
128 1 9.037670525498411 3.267568676617898 3.790465716510342 0 0 0
125 1 10.354143850339263 3.9982613398236504 6.054611362867896 0 0 0
155 1 9.768315347948482 4.636925706001455 7.2115338866693195 0 0 0
161 1 10.28432084646034 4.840680010257403 8.504792703575212 0 0 0
122 1 11.751091383132099 3.918425334725953 6.067900288728329 0 0 0
163 1 9.419541702841958 5.612491902578268 9.330078630251585 0 0 0
133 1 11.202825696046615 3.913176620795325 9.016391056285492 0 0 0
143 1 9.4141435636861 6.404148108957129 2.560113553039355 0 0 0
149 1 9.634472069975722 8.046684296819787 5.466194802801888 0 0 0
152 1 10.916363560792542 7.585507932031786 5.942470820039734 0 0 0
138 1 10.573115796123151 6.517529521549577 3.3492118976292313 0 0 0
158 1 11.50008246797636 6.990810547834603 9.948534868448107 0 0 0
159 1 9.190558858417738 7.116260893664205 9.206640232816886 0 0 0
164 1 10.47448537858629 7.85723638035685 9.503736251877381 0 0 0
172 1 9.765625954527962 10.38716894926449 4.581029936953722 0 0 0
173 1 10.978140438392822 11.02587081959101 4.967607759879347 0 0 0
175 1 9.260248771207523 9.412350360469361 5.4807718558877925 0 0 0
176 1 11.44757661180958 10.650941938744143 6.213573720171534 0 0 0
186 1 11.085153038059827 11.275491705698862 7.425325648961906 0 0 0
182 1 11.327794914144015 10.36743707078956 8.662508509308925 0 0 0
187 1 10.088555579037987 9.796198836301164 10.848321858548166 0 0 0
190 1 10.834204463561576 10.496215213856061 11.750555900827917 0 0 0
105 1 11.828580943854273 11.418928198596953 9.604544415877017 -1 0 0
183 1 10.574211384830004 9.319058821283303 9.583411752727962 0 0 0

Velocities

12 0 0 0
13 0 0 0
11 0 0 0
17 0 0 0
32 0 0 0
31 0 0 0
28 0 0 0
29 0 0 0
30 0 0 0
38 0 0 0
36 0 0 0
4 0 0 0
6 0 0 0
7 0 0 0
45 0 0 0
14 0 0 0
22 0 0 0
63 0 0 0
66 0 0 0
34 0 0 0
64 0 0 0
39 0 0 0
41 0 0 0
42 0 0 0
168 0 0 0
40 0 0 0
50 0 0 0
52 0 0 0
53 0 0 0
54 0 0 0
60 0 0 0
59 0 0 0
67 0 0 0
71 0 0 0
108 0 0 0
75 0 0 0
80 0 0 0
76 0 0 0
79 0 0 0
77 0 0 0
89 0 0 0
84 0 0 0
96 0 0 0
83 0 0 0
21 0 0 0
109 0 0 0
103 0 0 0
107 0 0 0
1 0 0 0
16 0 0 0
18 0 0 0
3 0 0 0
2 0 0 0
9 0 0 0
10 0 0 0
26 0 0 0
24 0 0 0
25 0 0 0
5 0 0 0
8 0 0 0
46 0 0 0
48 0 0 0
58 0 0 0
51 0 0 0
70 0 0 0
57 0 0 0
27 0 0 0
68 0 0 0
69 0 0 0
78 0 0 0
43 0 0 0
47 0 0 0
90 0 0 0
82 0 0 0
92 0 0 0
55 0 0 0
56 0 0 0
61 0 0 0
62 0 0 0
65 0 0 0
73 0 0 0
72 0 0 0
81 0 0 0
85 0 0 0
88 0 0 0
94 0 0 0
97 0 0 0
87 0 0 0
95 0 0 0
20 0 0 0
93 0 0 0
100 0 0 0
106 0 0 0
33 0 0 0
98 0 0 0
102 0 0 0
99 0 0 0
101 0 0 0
114 0 0 0
15 0 0 0
121 0 0 0
19 0 0 0
123 0 0 0
129 0 0 0
130 0 0 0
134 0 0 0
137 0 0 0
35 0 0 0
44 0 0 0
147 0 0 0
141 0 0 0
150 0 0 0
156 0 0 0
151 0 0 0
166 0 0 0
167 0 0 0
23 0 0 0
165 0 0 0
37 0 0 0
49 0 0 0
140 0 0 0
142 0 0 0
145 0 0 0
171 0 0 0
144 0 0 0
148 0 0 0
154 0 0 0
153 0 0 0
162 0 0 0
74 0 0 0
110 0 0 0
160 0 0 0
188 0 0 0
91 0 0 0
169 0 0 0
86 0 0 0
174 0 0 0
170 0 0 0
179 0 0 0
177 0 0 0
178 0 0 0
184 0 0 0
185 0 0 0
104 0 0 0
180 0 0 0
181 0 0 0
191 0 0 0
115 0 0 0
116 0 0 0
112 0 0 0
111 0 0 0
118 0 0 0
120 0 0 0
126 0 0 0
127 0 0 0
131 0 0 0
189 0 0 0
135 0 0 0
136 0 0 0
132 0 0 0
113 0 0 0
117 0 0 0
119 0 0 0
139 0 0 0
157 0 0 0
124 0 0 0
146 0 0 0
128 0 0 0
125 0 0 0
155 0 0 0
161 0 0 0
122 0 0 0
163 0 0 0
133 0 0 0
143 0 0 0
149 0 0 0
152 0 0 0
138 0 0 0
158 0 0 0
159 0 0 0
164 0 0 0
172 0 0 0
173 0 0 0
175 0 0 0
176 0 0 0
186 0 0 0
182 0 0 0
187 0 0 0
190 0 0 0
105 0 0 0
183 0 0 0
