LAMMPS data file via write_data, version 8 Apr 2021, timestep = 51000

5157 atoms
1 atom types

-0.21890957019369345 36.21890957019388 xlo xhi
-0.21890957019369345 36.21890957019388 ylo yhi
-0.21890957019369345 36.21890957019388 zlo zhi

Masses

1 12.0107

Atoms # atomic

1 1 0.7343752919936082 0.712971065619182 4.890530209467437 0 0 0
28 1 0.8884900455781691 1.5252416614402065 6.1704469099064845 0 0 0
3430 1 8.358820193980446 6.3108675129215435 6.718094589271673 0 0 0
82 1 2.2586121412185594 2.3536413781287084 6.198161120896724 0 0 0
3241 1 7.789712809452159 7.574804681926814 0.4711391287540249 0 0 0
109 1 1.1498268292290241 0.8232200301406933 8.647188883293584 0 0 0
298 1 0.8737024240299929 2.74615500541469 1.9013963188116094 0 0 0
325 1 0.36258570812056123 3.7049476563661417 0.8931660384334366 0 0 0
55 1 0.2408822891626045 1.0076388279149389 7.45300968915284 0 0 0
379 1 2.0108995261771074 5.2138432657214935 2.6540373673631636 0 0 0
406 1 2.061117760575899 3.679158650111542 6.644542992922345 0 0 0
433 1 0.739018420644834 4.208395869726815 6.92867061316945 0 0 0
460 1 0.6620607174553753 5.27859393356292 8.01162632919881 0 0 0
1999 1 4.195318122142596 8.400669638014715 3.736676663565775 0 0 0
2134 1 3.002641628609438 6.9503322535919505 8.395977700691967 0 0 0
595 1 1.1160661496442945 7.615125070096742 2.4978180973150197 0 0 0
622 1 0.9142283250543132 7.727758127394947 1.1456918935458655 0 0 0
2647 1 8.619774901280904 0.4756046128069007 0.28990989101365633 0 0 0
676 1 1.1387763195303575 6.285310313307295 2.948691393769306 0 0 0
1324 1 3.5556138133468864 0.10334820504803179 5.383400846469306 0 0 0
730 1 0.9651217656906758 6.670897525512299 5.244351904667778 0 0 0
757 1 0.3302652323197713 6.186816187225029 4.126621708787823 0 0 0
784 1 2.537303803414788 6.850249711082291 5.097104208370736 0 0 0
811 1 2.829197571942542 7.919791895963491 4.113770863070043 0 0 0
4699 1 8.503276054591456 5.703175095924497 2.5110555669425207 0 0 0
865 1 1.7328417516935604 7.508457857506282 8.041847388395954 0 0 0
892 1 0.7807395102770934 6.629576041140657 7.636314205542597 0 0 0
1972 1 4.438790410011856 8.383175459976263 1.306521247102815 0 0 0
1297 1 3.49488679984778 1.9049115338616727 2.394373009716913 0 0 0
838 1 0.20022344028866737 7.020235085300949 6.363866062961395 0 0 0
1351 1 3.5216880525571055 1.4245006038895245 5.999479730401578 0 0 0
1378 1 4.7211845861649335 1.4044560835220632 2.6715412974769284 0 0 0
1405 1 5.996964377637755 1.1598461912236597 3.2556444619546174 0 0 0
1432 1 5.68781460222173 2.512184026531514 7.226337575746949 0 0 0
1459 1 5.035690128492367 1.7577731350870234 6.209900474886844 0 0 0
4402 1 8.332804686265085 4.474673685415257 1.77462888936767 0 0 0
1513 1 5.916307317144926 1.9182288629174413 8.513948359850225 0 0 0
1567 1 2.3313765721176045 2.7798930206778922 2.166089426167141 0 0 0
1594 1 2.7706852558542323 4.197415133611747 2.376393146564666 0 0 0
1621 1 4.054000803819622 4.611092722648886 1.921850470420249 0 0 0
1648 1 4.262742984183759 4.506958841703033 0.4981745970115603 0 0 0
1675 1 5.671140252474407 4.5389443049633265 5.708468233764959 0 0 0
1702 1 3.369962847643552 5.843506908307159 5.7023568896269765 0 0 0
1729 1 3.3072087847136804 5.474553416409312 8.179286186143086 0 0 0
1756 1 2.9879153002435976 4.876763938823221 6.700642606911566 0 0 0
1891 1 2.116520041352753 8.103951521723555 0.48444792939764586 0 0 0
1918 1 4.60462023617836 7.5832026325460955 2.51572852358756 0 0 0
3376 1 6.932370835725795 6.871172531954057 5.000605109919723 0 0 0
3268 1 7.713450056030513 6.809169354254516 2.7504136841055944 0 0 0
3349 1 6.631248168147298 6.7638268896155465 3.650537725027034 0 0 0
2026 1 5.798507950651777 7.001286418390666 5.84344351555702 0 0 0
2053 1 4.904139147471231 5.802750143819813 5.859687972608421 0 0 0
2080 1 5.773091611354579 7.928466303286576 6.913984158953801 0 0 0
2107 1 5.538680753163229 7.442756652081602 8.23345853469111 0 0 0
3295 1 7.010295960889172 6.437880979058236 -0.0355332845670584 0 0 0
2755 1 7.935424618138326 0.05127043693139391 4.486546399400116 0 0 0
568 1 -0.11261585920413641 7.182661142687041 0.35684793244923513 0 0 0
2674 1 5.716634037155213 0.6206294491017852 5.621534941973012 0 0 0
3322 1 7.592523543256 7.919847047480298 1.838014225686274 0 0 0
2728 1 6.6540844967976405 0.6858621525537159 4.431781755895728 0 0 0
703 1 1.7778846819807437 8.541480948684576 3.2762373638588445 0 0 0
2917 1 5.077121752148094 5.173261362746442 2.7396120888582067 0 0 0
2944 1 7.149191635080496 3.8249139082392354 2.2937770706300973 0 0 0
2971 1 6.12983985106728 4.273913341809323 3.273086623498831 0 0 0
2998 1 7.8757170222241415 3.5221942150726115 4.870750733588056 0 0 0
3025 1 6.492468436977046 3.993319425427639 4.573819516974014 0 0 0
3052 1 8.18587043830239 4.89920181991478 7.035993708325938 0 0 0
3079 1 7.156761851278172 4.2932067836065 7.665913329992425 0 0 0
3403 1 8.320559113621004 6.799622551884269 5.392501842385801 0 0 0
3133 1 6.016606699316515 3.830060553581071 6.920319447834773 0 0 0
3214 1 5.4208778610620305 6.500663733005227 2.990939428350221 0 0 0
3457 1 8.580908311305908 7.365807706555096 7.688043068182671 0 0 0
3808 1 8.1411010251304 8.602700093727373 7.358625822967536 0 0 0
4096 1 -0.18654217986297103 1.1101344472450438 3.902554313390834 1 0 0
1486 1 6.0110001735887675 0.43639706838696557 8.646731610507427 0 0 0
2161 1 4.080047990248981 7.774470359612766 8.828229902406356 0 0 0
4015 1 -0.17607833278163149 1.9036657259228886 2.598389664795928 1 0 0
136 1 2.615798846440014 0.9308597607116793 8.826659750591753 0 0 0
919 1 1.3744131776428892 8.824287714485157 7.818399918363811 0 0 0
3619 1 6.517601874189663 8.852393941108238 2.053584527703892 0 0 0
2 1 1.3708537059729355 0.43179259468413206 16.64892919406965 0 0 0
3350 1 6.892716776244918 7.361897146460384 15.496865823467221 0 0 0
163 1 0.43317772642803254 0.8009171332649309 9.878478737512383 0 0 0
596 1 0.7345743933811383 8.721103999900807 14.65995809344453 0 0 0
217 1 1.1350937104006737 2.5766661588626847 11.122015303236712 0 0 0
244 1 2.3789037524086636 1.8102305633750062 10.997947660419015 0 0 0
271 1 2.917380109308176 0.6802699870180398 11.788924814415505 0 0 0
299 1 1.731941702216844 3.493833202036405 13.775343027576408 0 0 0
326 1 1.0599367725926978 4.295884026213056 12.842242954979406 0 0 0
1325 1 4.665034955321258 0.27012085957566606 17.048865854311817 0 0 0
190 1 0.012719756754497514 2.0081160745726714 10.422519777464174 0 0 0
514 1 1.1757078755725465 3.986781965366895 11.47678695218771 0 0 0
541 1 1.1327591801926065 4.9934907154333965 10.471061487480076 0 0 0
353 1 0.1948875180345506 5.145774700687401 13.498300546317651 0 0 0
4403 1 8.712642920845886 5.225063909355386 12.830432482305197 0 0 0
2027 1 5.9865393869575385 7.245049251944628 17.793357084322633 0 0 0
1676 1 6.217001342309472 4.722946047863113 17.494988258587053 0 0 0
677 1 0.5227838786679864 7.371618705656596 14.657708990209544 0 0 0
1783 1 3.5183067178913663 3.344327033036591 9.36003868508249 0 0 0
731 1 1.3461363262443462 6.786023651472571 17.005202097999444 0 0 0
758 1 0.26457700995696276 6.771162137143939 15.944824634020272 0 0 0
785 1 2.715075921373764 7.109467277551806 16.73705662760857 0 0 0
812 1 2.9003766977697785 8.357775471406187 15.898865708585516 0 0 0
4097 1 0.1229692940303136 0.503284523189775 15.978643280917002 1 0 0
1703 1 3.7983707938470563 5.995235194797747 16.96201908830734 0 0 0
1000 1 1.7228689598310873 7.569842152550012 10.78382405487161 0 0 0
3106 1 7.3284675251585485 3.9333427763108344 9.142337606531669 0 0 0
1054 1 0.9563866968067255 6.378317563060151 10.903571780003514 0 0 0
1298 1 3.404765785950594 1.8880639142717965 14.194138267057614 0 0 0
3377 1 7.016463978714911 7.428071632768146 16.810394391928497 0 0 0
1757 1 3.3792075875873935 4.5895922830038165 16.567702653447864 0 0 0
1379 1 4.273538076152777 0.9395017122364632 14.068415832438761 0 0 0
2729 1 6.495527386643855 -0.2029931596137091 13.116774507507547 0 0 0
1540 1 3.068285578695973 1.9756303928907324 9.682080384735466 0 0 0
1568 1 2.8338576796778994 3.0896212061064956 14.594531706161618 0 0 0
1595 1 3.6627513301091548 4.167591030371725 15.142774462168111 0 0 0
1622 1 4.681321791167624 4.687582500653223 14.280621039962575 0 0 0
1649 1 4.540316278586496 4.676386194373436 12.879626660328206 0 0 0
487 1 0.3349186952423037 4.79330426138683 9.289559878782955 0 0 0
4016 1 -0.14703705418437554 1.2253926767814536 14.843682623732988 1 0 0
3484 1 6.449456278574651 7.201786480132421 9.481055988732209 0 0 0
1810 1 3.8762341064300774 4.827834039809219 9.42208670422775 0 0 0
1837 1 4.7764585217244955 5.451531968143877 10.494998493414743 0 0 0
1864 1 5.03396322802446 4.422500064336703 11.577513534140548 0 0 0
1892 1 2.595414054235448 7.79300969155385 11.790266649406991 0 0 0
1919 1 4.863106300083164 7.47990320958091 14.178090299336178 0 0 0
3565 1 8.217615952386131 8.338897149134525 10.845065585774773 0 0 0
1973 1 4.787683902407697 7.74731271326399 12.808041681126847 0 0 0
2000 1 4.153319327867693 8.443374264517418 15.163749086785518 0 0 0
1946 1 3.533088268824417 8.49723700322358 12.546862355108981 0 0 0
2054 1 5.290838574956114 5.920642866213776 17.568500927976167 0 0 0
2188 1 5.532275585773478 6.724438720313199 10.536206105143627 0 0 0
2215 1 5.498406911907197 7.855315230184232 11.532825345189044 0 0 0
380 1 0.22371608722206746 6.556692384810572 13.531861988014564 0 0 0
946 1 1.0967343329403694 8.679174116939514 10.262482233455183 0 0 0
3538 1 7.922051053515495 7.422756415630741 9.848326924110896 0 0 0
1406 1 5.375041987262851 0.4907481079491245 13.422209256382112 0 0 0
3404 1 8.358672046527339 7.579650367738265 17.387808546264647 0 0 0
2782 1 8.059632231396359 0.8339143114914754 10.062522884527846 0 0 0
2809 1 7.768230170714221 1.5688415756967635 11.307548166465557 0 0 0
2836 1 6.7382743399104585 2.5565499842279347 10.85604145547164 0 0 0
2648 1 8.405565573613991 1.0489670567047984 12.575027551509445 0 0 0
2890 1 6.636945139066648 2.683415385320817 9.419096160591957 0 0 0
2918 1 5.8420443991825195 5.457533120704104 14.672407937485577 0 0 0
2945 1 8.439390151546986 5.300691451578878 14.304484224268174 0 0 0
2972 1 7.267649344856665 5.002101898639194 15.245643717171431 0 0 0
2999 1 8.532904207769848 4.729410594356189 17.44206869127557 0 0 0
3026 1 7.345657268598116 4.705879078297202 16.658405613201303 0 0 0
3160 1 8.401056426537119 4.541812218502667 9.846854182318548 0 0 0
3187 1 5.887867950755327 3.375684497070289 11.49190547287441 0 0 0
3215 1 5.777434217138632 6.7693135548484085 14.878810555882438 0 0 0
3242 1 8.392996724447269 7.8257464779015935 12.136789507262113 0 0 0
3269 1 8.063233134948348 7.63008004190191 14.570175611592122 0 0 0
2863 1 7.236688751182629 -0.023467003994045485 9.235854319815763 0 0 0
3323 1 7.87046238932963 8.420506661305927 13.393671223116323 0 0 0
1352 1 4.455694305081783 1.4727360293106315 17.807462948574816 0 0 0
29 1 1.650118716408131 1.3183350740067439 17.809720113040296 0 0 0
407 1 2.7358191498930347 3.603639429255492 17.591995275524273 0 0 0
83 1 2.9976217212735934 2.1158207075596422 17.637522358234406 0 0 0
569 1 -0.1764644412706077 8.785437080225787 12.348633894120185 0 0 0
3653 1 7.837021782137172 -0.20336781113707758 12.821767864068244 0 1 0
1947 1 4.152347634381956 7.889326057840503 24.660139018323907 0 0 0
3539 1 7.951182479177278 6.57803291765953 21.403614001812954 0 0 0
110 1 1.5428393670730103 0.7078242671822731 20.346290502884116 0 0 0
137 1 3.0064467996222075 1.0901813838405912 20.620271832467598 0 0 0
164 1 0.7786799238760121 0.1698611444014061 21.50725749277578 0 0 0
191 1 0.38514459072051593 1.3412969635182195 22.295031087588917 0 0 0
218 1 1.3603907094781402 2.352160020135113 22.772388729461333 0 0 0
245 1 2.768264478740677 2.0472411631884673 22.70997039374611 0 0 0
272 1 3.381583646381945 1.0358778731924478 23.320469855391405 0 0 0
300 1 2.210490631006624 3.096120060939846 25.446254447160186 0 0 0
327 1 1.1484003797915734 3.6824105722220555 24.64271426075917 0 0 0
651 1 -0.14922935955975392 6.654834175094584 24.94892395147211 0 0 0
381 1 0.26402708644084516 5.603117880207677 25.883696659091015 0 0 0
2702 1 8.172964846372995 0.1916429227458393 18.750959283195066 0 0 0
434 1 1.4445963256374363 4.124601192916723 18.39185117608038 0 0 0
461 1 1.73652079112579 5.087676157993963 19.41458928086702 0 0 0
488 1 2.074975461705349 4.77085733204996 20.89002939665585 0 0 0
515 1 1.0786210754432823 3.665313091547989 23.175785402866115 0 0 0
542 1 1.4421262926570737 4.829915123974521 22.2798354899368 0 0 0
570 1 0.6622662039903572 7.864473458125328 25.1757393238786 0 0 0
920 1 1.4668461382118334 8.571591106187965 20.693855920718352 0 0 0
624 1 1.9535455602091272 7.465591984634258 25.796691350044906 0 0 0
56 1 0.8183871459449599 0.8327568056227249 19.05016666446454 0 0 0
3324 1 8.21308918922065 8.648175618527203 26.144843600898838 0 0 0
866 1 2.1586627923875996 7.336874158973748 20.370061084996962 0 0 0
893 1 1.4742296793899239 6.478203133327347 19.436887357562046 0 0 0
2519 1 3.890665951747603 -0.06021913616671082 20.68045128256224 0 1 0
947 1 1.4257180286494553 8.583502132811635 23.135388961453426 0 0 0
839 1 0.8157832179007631 6.92696971236674 18.2405335652027 0 0 0
1001 1 1.9699530792902584 7.278957305746323 23.472755997920967 0 0 0
2783 1 8.712284387667166 0.42872200257500626 21.607842443959026 0 0 0
1055 1 1.451133766210418 6.170258776214625 22.757792117329622 0 0 0
2277 1 5.8969469422425895 0.33863363235115246 25.867218365196255 0 1 0
1433 1 5.999833105515046 2.8923921296669888 19.41262902238802 0 0 0
1460 1 5.762775136532339 1.585539235133986 18.690696926334795 0 0 0
1487 1 6.217788885117388 0.20258676365140074 20.86009992797759 0 0 0
1514 1 5.711446025102982 2.9273212051683917 20.825665491227923 0 0 0
1541 1 3.353634242660833 2.313502078133249 21.39402108353037 0 0 0
1569 1 3.3242981903473936 3.2717180302584445 26.267275471353184 0 0 0
2649 1 8.465516685067625 1.137204798993218 24.51240481487961 0 0 0
1623 1 4.851921512388473 5.125115135983441 26.562828384925186 0 0 0
1650 1 5.0861964297264715 5.181369933849652 25.11928030985066 0 0 0
1730 1 3.382650038567821 5.380438268599789 21.073975867126723 0 0 0
3431 1 8.593653746057429 6.9310178832662235 18.678447040849314 0 0 0
1784 1 4.436415486149862 3.2320762573026047 21.349757349184312 0 0 0
1811 1 4.3377313283917305 4.622178764089952 21.753588136708913 0 0 0
1838 1 5.153143827324296 5.261144372137118 22.707687849545906 0 0 0
1865 1 5.327227228159686 4.552798014699088 23.936027638671828 0 0 0
1893 1 2.839630844373459 7.217577358998371 24.70739509030495 0 0 0
3297 1 7.536926163220137 7.007795468996825 24.42420702795191 0 0 0
4404 1 8.874907005374887 5.637993937880168 26.469207340437453 0 0 0
3243 1 8.515174783543944 8.085299914092806 24.900270416315152 0 0 0
2081 1 5.600984626555722 7.979893760894868 18.99716434920055 0 0 0
2108 1 5.553634112785731 7.327574854231796 20.27151199681797 0 0 0
2135 1 3.3663192693490567 6.832836663308504 20.88292000733264 0 0 0
2162 1 4.479662717795539 7.742754237604602 21.08298315761434 0 0 0
2189 1 5.911758585221996 6.536496200080393 22.408039912247155 0 0 0
2216 1 6.720672319963332 7.360420924477973 23.361345258715073 0 0 0
1974 1 5.158527929838264 8.391240251264065 25.46772691575846 0 0 0
1299 1 4.275257409729362 2.264026569225113 26.26921380157689 0 0 0
2810 1 8.338844396966353 2.241324769066731 23.524398996953853 0 0 0
2837 1 7.102339512759891 2.8505812351961963 22.88965190345092 0 0 0
2864 1 7.325926685968193 0.4977694723716102 21.66603975151255 0 0 0
2891 1 6.896316080457676 3.158208031412551 21.579476775838426 0 0 0
3485 1 6.501102438804705 6.794802594492424 21.176858477472432 0 0 0
2675 1 6.877695257926154 0.5278143470559349 18.231951399212974 0 0 0
3053 1 8.444218305412239 5.2918225721763354 18.761138874991424 0 0 0
3080 1 7.399268274406011 4.612007951986477 19.605529843661607 0 0 0
3107 1 7.471005758169946 4.371244008269284 20.99533838190634 0 0 0
3134 1 6.333574016070562 4.103085299760728 18.823696962502805 0 0 0
3161 1 8.240129521083524 5.240180354803459 21.673854480308094 0 0 0
3188 1 6.169604519838797 3.4096000899858385 23.742840682152835 0 0 0
354 1 0.10946301213787796 4.273233098403488 25.411753954161508 0 0 0
3512 1 7.4895493283681835 8.683215076017984 22.900742518109034 0 0 0
1380 1 5.521147975553884 1.5853464741473697 26.595206721776893 0 0 0
2946 1 7.886774091528174 4.911020812798725 26.77456508728965 0 0 0
1596 1 3.7569098834336523 4.403293523916405 26.924429309632046 0 0 0
3458 1 8.771218904611525 7.930789550092118 19.643956164468047 0 0 0
1920 1 5.070230707527594 8.069255425968185 26.8899818334779 0 0 0
4637 1 0.30257696414819085 3.582696508267118 18.157473164759907 1 0 0
3000 1 8.738447626770043 4.2580975331308375 29.75954528153886 0 0 0
30 1 1.4206019701739012 1.1487708803290793 30.30725915945042 0 0 0
57 1 0.5245056698816981 1.0475245766563401 31.46958685822162 0 0 0
84 1 2.6483264562522475 2.045120694139283 30.256087925149828 0 0 0
111 1 1.0578921342667746 0.7080675094436527 32.7166773677514 0 0 0
138 1 2.4535000471004804 0.9148412804974104 32.97822045679732 0 0 0
165 1 0.1786622623399907 0.8285881954082988 33.80870697975191 0 0 0
4098 1 -0.00208565267026682 0.0019070084398655552 28.4684105854879 1 0 0
219 1 0.9330944263036605 2.570937635309684 35.301870776503364 0 0 0
246 1 2.221010378925102 2.054429285524949 35.08161093725533 0 0 0
3432 1 8.781510638912946 6.3248453709111105 31.022926849884577 0 0 0
408 1 2.098915324707161 3.421179006794717 30.714973434371842 0 0 0
435 1 0.7051881215302686 3.730370547101792 31.39110402021642 0 0 0
462 1 0.5745705949808501 4.170587355252758 32.73836991833307 0 0 0
489 1 1.5851605168468401 4.664652783064671 33.647613394321354 0 0 0
3189 1 5.993109258508019 3.0196557860287325 35.97140117479656 0 0 0
543 1 1.510749209478675 4.65928856563448 35.15501277588676 0 0 0
597 1 1.6841215720386982 7.139489841640978 27.145283575887667 0 0 0
705 1 1.937974524939432 8.096310036079508 28.122052177601535 0 0 0
732 1 0.08381288252836977 6.286282230561728 29.706523650199987 0 0 0
759 1 0.13361862284557074 5.551317629669741 28.418524976569575 0 0 0
786 1 1.3114032288295387 6.878314599742153 30.346257202435226 0 0 0
813 1 1.9832753227834543 7.679414174615839 29.463251200793405 0 0 0
3513 1 6.693587456591778 8.21084413151575 35.08467488162439 0 0 0
867 1 1.631635254633216 6.9691877607756725 31.67821670214427 0 0 0
2811 1 8.241112848856199 1.5523612168581455 35.89267521727569 0 0 0
921 1 0.9413783635762749 8.004220789439676 32.331305299660734 0 0 0
948 1 0.9472237771037019 7.91233759347885 34.80665367920845 0 0 0
516 1 0.8795857725253818 3.6845909831694614 36.01073028162592 0 0 0
1002 1 2.015733723014809 7.379222638302781 35.67808449663943 0 0 0
1407 1 6.248497213691472 1.7824227638960277 27.749077890060228 0 0 0
1056 1 2.0889676427643655 5.975803872632359 35.572764227041596 0 0 0
3486 1 5.922780875327532 6.376367325587214 33.11008651388264 0 0 0
1353 1 3.8639091896576327 1.3412146294932983 29.889038260236056 0 0 0
3540 1 7.128338126684968 5.706362995431327 32.807971790155655 0 0 0
2703 1 7.913519197596926 0.17200857123100488 30.540141215100373 0 0 0
1434 1 5.45123795559778 2.712693868439569 31.37502175141111 0 0 0
1461 1 5.107538277678474 2.1537231489274458 30.060674568484895 0 0 0
1488 1 5.548797409739504 0.8427378932059226 32.89930491933951 0 0 0
1515 1 4.970397526127905 2.194707264657764 32.64387222295312 0 0 0
1542 1 2.7788203635477653 2.0049034881676313 33.76833040904623 0 0 0
1677 1 6.368797296696276 4.730582497862485 30.24378546235329 0 0 0
1704 1 3.9542024201894796 5.510968433167864 30.169095488894232 0 0 0
1731 1 2.783378058764404 5.1908257384904815 33.16583316742606 0 0 0
1758 1 2.9848229113390774 4.4592834677921855 30.367740995468825 0 0 0
1785 1 3.826373218523826 2.8334022854737335 33.340532677331446 0 0 0
1812 1 3.8568373396098776 4.246197524523237 33.61963691401387 0 0 0
1839 1 4.756464534048005 4.734558447686101 34.66629980381733 0 0 0
3216 1 5.998043857902727 7.126088308817794 27.363874402799258 0 0 0
192 1 -0.020766779265915303 2.054528224600106 34.41496451805712 0 0 0
2028 1 6.1102140746541584 7.083490410628086 30.096588186069386 0 0 0
2055 1 5.367754849147716 5.855638814828436 30.033230075199082 0 0 0
2082 1 5.598503262907156 7.9921962657818995 31.068531766534377 0 0 0
2109 1 5.177060630368906 7.247703578447122 32.352866309715054 0 0 0
2136 1 2.7986464751308504 6.506598881697577 32.38845862575733 0 0 0
2163 1 3.7746843098830842 7.535788089693648 32.67839427869285 0 0 0
2190 1 5.399749449587034 6.0039102170791985 34.36141667797889 0 0 0
2217 1 6.215492725857898 6.812828961917544 35.32960912869591 0 0 0
2676 1 6.727182099206605 0.3606589675931229 29.774701752269753 0 0 0
273 1 2.658132299816507 0.8370458932200017 35.83156060659277 0 0 0
2730 1 6.187309557812292 1.5429797994153729 29.193371897498174 0 0 0
4836 1 8.331240761844228 6.298832657602165 33.20052711900892 0 0 0
2784 1 8.15623650659899 0.3762655508760185 33.2458798336671 0 0 0
1272 1 1.409532220395372 8.572739753264424 33.646417083455084 0 0 0
2838 1 6.927074495990803 2.205006204275975 35.51443405220395 0 0 0
2865 1 6.923410218680262 1.0144695773669166 33.38615831850921 0 0 0
2892 1 7.001697076434101 2.253705335743087 34.12202792362083 0 0 0
2973 1 6.994547022813826 4.921239044251332 27.838573042357197 0 0 0
3567 1 7.757426599507693 8.650462739941739 35.945058629166745 0 0 0
3027 1 7.402769367037671 4.448522839327271 29.18110168852747 0 0 0
3459 1 8.781736743174086 7.274615239083212 32.202748222762445 0 0 0
3081 1 6.9354661020309365 4.268408910416074 32.620411174644566 0 0 0
3108 1 7.58473931463245 3.4727264129017055 33.69609480770397 0 0 0
3135 1 6.318914590207419 3.825333159331878 31.44134290973974 0 0 0
3162 1 8.548524193411156 4.253311955220004 34.50832779504166 0 0 0
3 1 1.2236834406430082 0.05359290033046134 29.2889126692546 0 0 0
3351 1 7.236616648680649 7.6125358768502265 28.07694017800221 0 0 0
3378 1 7.282444531718122 7.339946527245987 29.42439401382001 0 0 0
3405 1 8.584434172401403 7.161209141630086 29.894059235466617 0 0 0
3810 1 8.435450658118745 8.698866610342147 32.16681569776431 0 0 0
1866 1 5.032588777166074 4.04504042661553 35.85201963067458 0 0 0
678 1 0.792557210666746 5.976878858815823 27.21367032730789 0 0 0
2568 1 3.8763387158873397 8.655293504843875 33.48427666323208 0 0 0
1326 1 4.215143677995112 -0.041716098497016636 29.516274386808178 0 0 0
3270 1 8.507548313328638 7.74533373864807 27.20978474387314 0 0 0
2919 1 5.757764110722022 5.744108009498712 27.409612824291873 0 0 0
2520 1 3.33759569963621 -0.1342753482032835 33.123967454876215 0 1 0
4 1 0.8092042096517733 12.672796154545797 5.11832110305914 0 0 0
31 1 1.1048156985104864 13.64540322479081 6.007712491387591 0 0 0
58 1 0.40733429961014894 13.323196407490736 7.305983319143593 0 0 0
85 1 2.3667420355197684 14.48441162853486 6.205790542369298 0 0 0
3592 1 5.632580101822517 9.046101200955418 0.9636994547537351 0 0 0
3835 1 8.85617685176618 11.648868311528217 7.571269895684294 0 0 0
301 1 2.2726860642005158 15.328883460034069 1.594939504411035 0 0 0
328 1 1.2666081842519108 15.959662982914002 0.9116024487002191 0 0 0
1081 1 -0.19309779935174437 11.45838924275991 2.2252967842967175 0 0 0
3700 1 6.4903204168824775 9.487636473561754 3.2185561305701835 0 0 0
409 1 2.111220792846487 15.714939391053278 6.8327311540146125 0 0 0
436 1 0.7466532047093621 16.12404091533477 7.0696954968070305 0 0 0
463 1 0.6178610676625039 17.149795946096148 8.030224701145835 0 0 0
3109 1 7.290893048951039 16.605869679110402 8.840782129282394 0 0 0
1489 1 5.536389253534924 12.857518737482122 7.4789274497177765 0 0 0
355 1 0.15910251075660548 16.555561593989864 1.5863109734133796 0 0 0
1135 1 1.5073253086332825 10.426051626125238 5.894713775385676 0 0 0
1162 1 1.8375596028778378 9.940223563766457 2.938916066816806 0 0 0
1189 1 1.6774749388015713 11.565557691887362 5.056971333035617 0 0 0
1216 1 0.8252676652279202 9.813381777459655 6.8968548734319075 0 0 0
1300 1 3.8542916328404404 13.591905703221512 2.2521274298401237 0 0 0
1327 1 3.862409513764135 12.36926232041252 5.11657666746936 0 0 0
1354 1 3.7241724019237217 13.708812731154215 5.91131343892432 0 0 0
1381 1 4.403702463585748 12.36372863659288 1.9831688611404474 0 0 0
1408 1 5.821282991361986 12.30944053401725 2.2982818965201552 0 0 0
1435 1 5.347799763799193 15.323881540218526 7.331167326031547 0 0 0
1462 1 4.9282390103402465 14.023435374961869 6.7726596143867255 0 0 0
3781 1 8.124733039759066 10.967941689231035 6.451552151247015 0 0 0
4405 1 8.503660953002244 17.682500382628128 1.059315258586712 0 0 0
1570 1 3.437225864742047 14.969877473765829 2.2929469421008353 0 0 0
1597 1 4.227007161657073 15.993156193936352 2.762925832049223 0 0 0
1624 1 4.730965781201818 17.125809638653244 2.1045986667395162 0 0 0
1651 1 4.349717761532981 17.515695370470958 0.8732768586571181 0 0 0
1678 1 5.922995308524325 16.74762827303282 5.372817985051327 0 0 0
3646 1 5.687033791810661 10.241399168674334 0.34255328664424667 0 0 0
1732 1 3.1248193203680694 17.65985777507922 8.204673194611699 0 0 0
1759 1 2.9043274892255155 16.95587348314274 6.857965271595557 0 0 0
2242 1 3.287779284181209 10.413903393677906 0.5646461163523867 0 0 0
2269 1 3.57937713580336 11.1333747553962 1.8207854108980814 0 0 0
2296 1 5.1745016708360385 11.571664015437612 5.304502434275963 0 0 0
2323 1 5.1988714037303385 10.132875826220095 5.350534066160272 0 0 0
2350 1 2.9285646146333333 10.868332760464643 3.0155164578284652 0 0 0
2377 1 5.265960824686331 9.394701877911775 4.060013080761306 0 0 0
2404 1 2.945136561893197 11.67784263624109 4.2891728916839815 0 0 0
2431 1 5.413357904119944 9.504353247659791 6.632626169375005 0 0 0
2458 1 5.084569777812738 10.407495323638283 7.82921073000582 0 0 0
2485 1 4.698806085110996 11.798368310552217 7.896710929364568 0 0 0
3754 1 8.312332891359672 9.522458626760631 6.285430520081027 0 0 0
2650 1 8.130517123659887 13.632937450605132 0.697686767510342 0 0 0
2677 1 6.550966343469535 12.128683626516363 4.930723635907002 0 0 0
2704 1 7.74934145276971 12.072170352783077 5.615355717831344 0 0 0
2731 1 6.688551016491267 11.973610440248043 3.412904236569349 0 0 0
1108 1 0.5179160019395834 10.463634790148731 2.5788613693524773 0 0 0
2920 1 6.0581439116048115 17.661159304408315 2.2499005951293296 0 0 0
2866 1 6.548711276937209 13.176804363808028 8.319891959100076 0 0 0
2974 1 7.229373602015706 17.49226904818975 3.190853935906852 0 0 0
3001 1 8.36434885946424 16.76154008925859 5.191959453066968 0 0 0
3028 1 7.094944215131839 17.019243611222397 4.505747882623025 0 0 0
3055 1 8.37935499733843 17.377199440459965 6.622896267281529 0 0 0
3082 1 7.284754417729119 16.64323924944791 7.375314802371178 0 0 0
3673 1 7.312443515027255 10.636041256631536 3.2256897554010133 0 0 0
3136 1 6.176415736313066 16.224122976759354 6.658609107603705 0 0 0
2056 1 4.725441007155526 17.878502691366382 5.466548971797911 0 0 0
2947 1 8.53640081701564 17.99810053162154 2.499054760049946 0 0 0
112 1 1.3390263953322905 12.915056150361842 8.566570008585034 0 0 0
1705 1 3.2578039103544567 17.85400793089208 5.686019768253491 0 0 0
3727 1 8.704950823736128 10.453576918169267 3.1517607707005157 0 0 0
1516 1 5.26594773726056 15.298263623893497 8.729304315788184 0 0 0
3945 1 8.643347521114665 9.74004950319486 -0.1849043525392342 0 0 1
139 1 2.760283656581758 13.182152866241946 8.682526248266717 0 0 0
2512 1 3.6322977002184698 12.085980183260926 8.792121112289339 0 0 0
1945 1 3.2907697914046397 9.002613486429196 0.6576470665505286 0 0 0
3916 1 8.13901524914978 11.673404636259772 8.804689197919334 0 0 0
3192 1 5.512096485148807 15.600674036684495 -0.13635450692312645 0 0 1
5 1 1.041349020777485 13.329528147417559 16.226728668617024 0 0 0
1840 1 4.399898158123741 17.63103692992435 10.44785770006594 0 0 0
973 1 0.0348705961258822 9.290907140949217 10.985318924487926 0 0 0
3163 1 8.087036445346799 17.569784415962342 9.433715026807931 0 0 0
220 1 1.1507869064748633 14.653674995467371 10.946199682599207 0 0 0
247 1 2.466956505529236 14.093203085222509 10.736468423894287 0 0 0
274 1 2.8444544102752665 13.023457929362358 11.651090173800958 0 0 0
302 1 1.748194797296313 15.247440202539766 13.579275821609412 0 0 0
329 1 1.0340550710803567 16.05715271147915 12.712215582227412 0 0 0
623 1 0.3199965873151086 9.354062769319793 13.468023909621001 0 0 0
193 1 0.047116767185679226 13.968956504605279 10.293942070982814 0 0 0
517 1 1.0478382428844035 15.918067493721663 11.360886419515378 0 0 0
544 1 1.0185841522385415 17.143797415631887 10.489822000800332 0 0 0
1082 1 2.249974639535322 10.780589257810405 12.314364969538415 0 0 0
1109 1 1.2021901835386082 10.543826579892634 13.558176565313666 0 0 0
2785 1 7.7852580497412465 13.048371457010928 8.996273389221708 0 0 0
1163 1 1.9014448905075056 10.631355184959899 14.817470007347291 0 0 0
1463 1 5.199684749574433 13.710460787047245 17.79554951121621 0 0 0
1243 1 2.783324678737748 11.669964105973513 11.268268566974696 0 0 0
3620 1 6.902083672491212 9.648361946106235 13.553551732205124 0 0 0
1301 1 2.16085154558048 13.704502345562364 15.361650601718624 0 0 0
1328 1 3.623281016652242 11.918552093281837 17.599446650443312 0 0 0
2324 1 4.945342681382857 9.913480377777345 17.681414191720446 0 0 0
1382 1 3.2813890513399 12.821719080764627 15.022700140165112 0 0 0
1409 1 4.506140794642146 13.429946428012851 14.662868670895806 0 0 0
3701 1 6.30791195630401 9.92750126004055 14.798986141306194 0 0 0
1571 1 2.3134530838480565 15.0046752967339 14.754406794445778 0 0 0
1598 1 3.506433404134598 16.041700167477288 14.913200603662988 0 0 0
1625 1 4.423275601943539 16.875424987340296 14.383425698517781 0 0 0
1652 1 4.215437514234246 17.063682771237367 12.886743145585346 0 0 0
3728 1 8.231144571391175 11.282308025114189 15.605467854298725 0 0 0
32 1 1.3054148038602595 13.480906082982933 17.628459172000845 0 0 0
3862 1 6.312659079517038 9.939756707655445 10.019233612963914 0 0 0
1355 1 3.782617865570036 13.379144584808188 17.675088254247058 0 0 0
2566 1 4.10005622626434 9.088558903435931 9.33530231955941 0 0 0