LAMMPS data file via write_data, version 8 Apr 2021, timestep = 101000

1728 atoms
1 atom types

0.03369370585764562 25.596967294141855 xlo xhi
0.019453075368565585 14.778419924631207 ylo yhi
0.051944921056882504 39.46233907894288 zlo zhi

Masses

1 12.0107

Atoms # atomic

997 1 1.692987064582723 2.0430388996257753 1.667860238152523 0 1 0
973 1 1.6536637110906576 6.926407053034461 1.6011794388986162 0 0 0
1003 1 1.6937397064732613 4.441472096289229 1.6845009502229786 0 1 0
1189 1 3.813464620650704 5.6455103531917015 1.6728007050751987 0 0 0
169 1 5.264029536919649 0.8158266781716214 1.6380711969710287 0 1 0
145 1 5.249704734088632 5.667003322381914 1.6185410393395359 0 0 0
355 1 3.1859311951602645 4.40185300044479 1.74453135507788 0 1 0
349 1 3.1648924617616347 2.0444309881439664 1.6364007119957624 0 1 0
1219 1 3.919914696786227 3.1788924843218322 1.7169278798722503 0 1 0
1213 1 3.848052675562633 0.7950788322955746 1.660357961350202 0 1 0
175 1 5.318247909217303 3.2405561411492365 1.5329560498264891 0 1 0
1039 1 6.024409723229598 4.453779559432475 1.5517867959239842 0 1 0
133 1 0.9827238507720121 0.7780537813556155 1.6360197133699428 0 1 0
1009 1 5.9468546181332425 6.887013640516731 1.6666004448020952 0 0 0
1033 1 6.006125392730966 2.0120905858390894 1.5787058507189007 0 1 0
139 1 0.9640841251142658 3.248366385547921 1.6708588707165626 0 1 0
109 1 0.9656259994186475 5.695270025859995 1.7032418207704465 0 0 0
325 1 3.1102074256083165 6.883993666234852 1.6158397513848546 0 0 0
607 1 0.21946777872351392 6.407566115675186 4.96046435768428 0 0 0
643 1 4.462442089276401 6.3383015075587945 4.930603747520814 0 0 0
1501 1 5.911749547011488 6.3106068464201215 4.81515816548679 0 0 0
601 1 0.22500878621014958 3.8816957396347784 4.855244529103073 0 0 0
595 1 0.2036913824447185 1.4003582641015007 4.9626113722656875 0 0 0
1495 1 5.8980791051734505 3.8628301699038134 4.913937512705328 0 0 0
637 1 4.472304791659589 3.8810633616787844 4.959137622484654 0 0 0
1465 1 1.6459612560178551 6.38469571193688 4.976298420802716 0 0 0
1459 1 1.639659474766295 3.905862215889148 4.97038819481937 0 0 0
110 1 3.094508726867458 1.683518131364264 8.235444166828756 0 0 0
332 1 5.2294140517472405 5.391969018346849 8.07237603942957 0 0 0
116 1 3.0458412607718457 4.196456460052288 8.16490600378738 0 0 0
1004 1 3.7968874031353748 0.4024246036019954 8.34760447626166 0 1 0
1166 1 1.604749308606905 6.6188216860099605 8.127816182473772 0 0 0
974 1 3.785617320371913 2.936402022720595 8.260317526524268 0 0 0
326 1 5.187295319903287 2.92437233290357 8.28917358584729 0 0 0
980 1 3.7705353870630782 5.374625141132792 8.061622709548342 0 0 0
1160 1 1.6020836460951688 4.166507731510317 8.209924681362146 0 0 0
296 1 0.9029117796636061 5.375896997804282 8.242033307963265 0 0 0
290 1 0.9438083772876901 2.920192053580439 8.206205552889177 0 0 0
122 1 3.048690677403686 6.5595899860556734 8.18456216733314 0 0 0
356 1 5.188552282171326 0.4203474005237054 8.341223550737025 0 1 0
1190 1 5.861720432764731 1.6513595071628993 8.285433116839231 0 0 0
1154 1 1.661563042282863 1.708674191092815 8.264104382536106 0 0 0
320 1 0.9480851074518399 0.4722945978268248 8.3212958120988 0 1 0
1202 1 5.93440965727388 6.634892604379317 8.110588719994716 0 0 0
1196 1 5.943944944390362 4.1156659876096935 8.131367819661168 0 0 0
1669 1 3.7500108076185863 0.17963934886691238 5.2386848835753055 0 0 0
1675 1 3.8029534868634403 2.658045678432946 5.058381720848845 0 0 0
817 1 2.337165198328238 5.16313777668402 5.028007441052898 0 0 0
805 1 2.2929386437223074 0.1727944797581105 5.182544130738994 0 0 0
811 1 2.3701887432984403 2.658132604195389 5.031982995411943 0 0 0
1681 1 3.7463395105644777 5.081205273835875 5.073712268157948 0 0 0
1489 1 5.899676912804989 1.4578078929787244 5.022521432710302 0 0 0
1453 1 1.6726092941922337 1.4429350519381872 5.029977051942321 0 0 0
631 1 4.4689897244613075 1.4265343206675998 5.127162298652539 0 0 0
446 1 0.2929876718244454 6.671392414672228 11.700892039256372 0 0 0
1544 1 3.791926935209539 0.5875479101477823 11.558729765205884 0 1 0
656 1 2.3961888311805764 5.497957422140207 11.438617103865326 0 0 0
1304 1 1.7320117917054292 6.69058467427035 11.572569786111012 0 0 0
476 1 4.523330806193961 4.264025182590176 11.496296956156055 0 0 0
434 1 0.23702926679354294 1.75093962013535 11.503486329702 0 0 0
1328 1 1.7231872019346126 1.8040228293774847 11.410735063795494 0 1 0
1298 1 1.7341022802261548 4.248611116756802 11.53495703645449 0 0 0
650 1 2.391630914482336 3.029016633758804 11.538659650654933 0 0 0
482 1 4.539049335248856 6.7134335951954425 11.53039227583231 0 0 0
440 1 0.3180893157795825 4.180171384808658 11.485693877758006 0 0 0
1514 1 3.822271403708931 3.00257384103217 11.549919189001795 0 0 0
1520 1 3.8296582060533426 5.4368770144512855 11.39271691723106 0 0 0
470 1 4.563492344565536 1.7892216576853934 11.599437851890528 0 0 0
1364 1 5.992275962109515 1.8015185267952454 11.439435202581446 0 1 0
1334 1 5.939990312065471 4.262713132687184 11.413804987596697 0 0 0
1340 1 5.932713912660516 6.716122516335553 11.559495365259142 0 0 0
680 1 2.3503644912467263 0.5405207152439288 11.334776532079514 0 1 0
1293 1 6.093751712138919 6.972077695231016 14.742584205707379 1 0 0
1245 1 1.7418694212901409 2.0373786362878423 14.770368515153997 1 0 0
207 1 3.158470399043617 4.540539904123704 14.689033610046724 1 0 0
417 1 5.380828170030014 3.288617184869217 14.507108706058046 1 0 0
213 1 3.221989228464817 6.987466490488161 14.806523619016502 1 0 0
423 1 5.344446804594509 5.786128384519557 14.661071090946113 1 0 0
375 1 1.1089631052611373 0.7491155998730059 14.747782198768093 1 0 0
381 1 1.094086572775636 3.2828187652143086 14.790040064974647 1 0 0
1059 1 3.9556713352577404 0.8395099104520019 14.679700639022784 1 0 0
1287 1 6.022261026576736 4.555311762082558 14.595329061773334 1 0 0
201 1 3.2170926017366956 2.067520402619736 14.69090878280617 1 0 0
411 1 5.357618377627527 0.8454435730776118 14.610262415490388 1 0 0
1065 1 3.9023826262576424 3.2969871535422817 14.57613256443515 1 0 0
1281 1 6.055663959044963 2.0397322011157706 14.438446588915003 1 0 0
1071 1 3.9529778919238354 5.7418752980907355 14.774048152933466 1 0 0
807 1 4.773822902433818 3.5454968176784325 18.08362007090511 1 0 0
1641 1 1.9707421838223356 6.091989878036409 18.126070500273396 1 0 0
1671 1 6.14882355432259 3.5928283162886214 17.957895119277186 1 0 0
765 1 0.5521286212171993 1.1627926612673138 18.129931905032663 1 0 0
1449 1 4.084873824083767 2.303047728871818 17.990583932401297 1 0 0
591 1 2.684344394329801 2.3654645218785886 18.021221877274254 1 0 0
1635 1 1.9477561013375555 3.5844478010230203 17.93013378316202 1 0 0
603 1 2.6735044721304204 7.361895891037582 18.01918726381166 1 0 0
1461 1 4.071824514635353 7.320222299325844 18.210671427524534 1 0 0
1629 1 1.9950635227770694 1.1020752476997342 18.077183057270748 1 0 0
1677 1 6.185671567604175 6.0638308438553805 18.151495955101456 1 0 0
597 1 2.7031745687666255 4.857893255499631 18.00864904053638 1 0 0
771 1 0.5169370291043733 3.5955894882056785 18.008031452714675 1 0 0
813 1 4.784677828140893 6.067237503085583 18.12910967494684 1 0 0
801 1 4.790066209899262 1.1293878268124775 17.937512014757537 1 0 0
1665 1 6.18437408773993 1.141701623051389 17.853248192612096 1 0 0
777 1 0.5402828774378517 6.0800821748157885 18.10150065210759 1 0 0
1455 1 4.093270789121021 4.817597728032305 18.019415506660476 1 0 0
1251 1 1.766081746937671 4.569690990560929 14.840034218505496 1 0 0
1257 1 1.773439101094816 6.998564168169808 14.83989820006759 1 0 0
387 1 1.0715128219814058 5.747073530402219 14.847645445301126 1 0 0
1276 1 3.751012859701372 6.278045346844341 21.606854507602943 1 0 0
622 1 4.9008346845501185 7.306181448290923 24.650051031944088 1 0 0
184 1 0.9484400310931179 1.3169602963747118 21.435341234013723 1 0 0
10 1 5.191289531261804 3.7802572959512712 21.5572100028958 0 0 0
1054 1 1.6716359612456466 4.9745187532272634 21.577092250378847 1 0 0
1078 1 1.661118067261827 0.11530915951097306 21.328148735947497 1 1 0
400 1 3.0441190064045514 2.5556025579444297 21.53048948881775 1 0 0
1048 1 1.595048734578779 2.5453166102366414 21.534766932861125 1 0 0
196 1 0.9226392035126657 6.233029604388142 21.42943203432411 1 0 0
190 1 0.8943893578252581 3.7673519127876567 21.630125862141234 1 0 0
430 1 3.0683482568700167 0.10546193303110632 21.332482084617688 1 1 0
4 1 5.220240313181865 1.3372950564792245 21.362782520694008 0 0 0
868 1 5.919820565171963 2.5742829803230913 21.35505934319552 0 0 0
1270 1 3.7509212139441153 3.782383218976123 21.627551713977493 1 0 0
406 1 3.0722133508715084 4.989809391540437 21.659815694825916 1 0 0
1264 1 3.779028462868004 1.3508414022623014 21.511570394327595 1 0 0
874 1 5.906064945502651 5.025456780449038 21.45720824904298 0 0 0
16 1 5.201643441549059 6.286114648244599 21.55525211104277 0 0 0
898 1 5.876039321524167 0.08837117899301168 21.360257937217707 0 1 0
1504 1 6.357088711464257 2.387534377381033 24.66666958514381 1 1 0
1660 1 4.153536340005194 6.05354290103933 24.557948266259157 1 0 0
616 1 4.898908431301067 4.868651134672895 24.453700167052 1 0 0
1510 1 6.333827097630127 4.9215603773762435 24.48949089144294 1 1 0
1690 1 4.220128448159735 3.6361619375913046 24.640347193886036 1 1 0
646 1 4.961705025392794 2.3914135077631573 24.5884239435782 1 1 0
1253 1 1.9090410736839805 2.217527484325087 27.962778436010197 1 1 0
1073 1 4.0498754556528045 3.460630769896874 27.996311007134484 1 1 0
1265 1 6.174856307614565 7.230986493828912 28.09474219103383 1 0 0
425 1 5.4739432069874105 3.409737946939732 27.98978753179853 1 1 0
185 1 3.2812345614118272 7.198413201115171 27.92540939961562 1 0 0
1259 1 1.8977275567660101 4.70596612257588 27.936226579859945 1 1 0
1229 1 1.867270930336218 7.1418914766299695 27.982838808515186 1 0 0
1289 1 6.247722432901247 2.212032748699938 27.88744683304056 1 1 0
419 1 5.508305584604786 0.9919021746698264 28.011266048983998 1 1 0
383 1 1.1927345889890202 1.0111173388453052 28.028506147305215 1 1 0
1067 1 4.083764434134699 1.0201129063519097 28.084759399793995 1 1 0
389 1 1.230295324529477 3.4301865224425034 27.979021998865505 1 1 0
209 1 3.3496587248879983 2.2567703324396913 28.02819060958248 1 1 0
1295 1 6.158464619677488 4.687847075409904 28.01952276176103 1 1 0
395 1 1.1991800722091535 5.922851445899331 27.937666024249623 1 1 0
431 1 5.448119364751467 5.950288070911871 28.11031162836334 1 1 0
215 1 3.312195216043688 4.719858438655524 27.957151467551355 1 1 0
1079 1 4.0208461958538315 5.950629523192536 27.96878916663033 1 1 0
1480 1 6.333143023031441 7.308263661567291 24.734488086783063 1 0 0
820 1 2.8536724127799378 1.114920235825271 24.856368618620042 1 1 0
610 1 0.6840293789036752 2.3152826163038256 24.859332247983012 1 1 0
580 1 0.6290903029183977 4.792052227928238 24.68637445371904 1 0 0
1684 1 4.248755665707234 1.1409094614295265 24.716531412959117 1 1 0
826 1 2.819997818417357 3.56140349192359 24.711207017874784 1 1 0
1444 1 2.051825522089081 7.240766892606004 24.707271044465717 1 0 0
1468 1 2.139700790168229 2.3337656102140576 24.898166972697556 1 1 0
1474 1 2.036185426242701 4.793292140446616 24.72009393438744 1 1 0
796 1 2.750553426067756 6.052270371368251 24.691650315765422 1 0 0
586 1 0.6340452188709057 7.251878839147908 24.696714776838704 1 0 0
437 1 4.530193475767013 4.287948130344538 31.31088117742878 0 0 0
1511 1 1.6116919543095316 4.335335069488064 31.3513731005068 1 1 0
863 1 2.3529513896618113 3.1456084892854506 31.293994916304744 1 1 0
443 1 4.493133354974349 6.773205459831998 31.295435848743313 0 0 0
1301 1 5.914262709296323 6.756259046106357 31.333648130146067 0 0 0
1697 1 3.804766134589878 5.521396915626114 31.335241747740493 1 0 0
833 1 2.3526900964927324 5.523228508964541 31.33582403182712 1 0 0
1481 1 1.6503974066383913 6.7763579039882575 31.18791538338352 1 0 0
647 1 0.24373942059329842 1.8965792478413 31.218332570151457 1 1 0
617 1 0.22483908783153525 4.346601718521019 31.28419242493405 1 0 0
467 1 4.51834378364049 1.9020759901936894 31.395985576542817 0 1 0
1727 1 3.7723183054218157 3.1250144112156226 31.41480793048569 1 1 0
1721 1 3.8313590752898143 0.6682335236774395 31.21389844470112 1 1 0
857 1 2.401752810338829 0.7286487697552151 31.12968772335533 1 1 0
623 1 0.19197472235573396 6.801186975323838 31.064130653051997 1 0 0
1505 1 1.6656763270792607 1.9280410829954493 31.191581501047885 1 1 0
1325 1 5.938620399443711 1.8888674719093608 31.287997801795186 0 1 0
1331 1 5.949566587750082 4.311968468122005 31.406030210344788 0 1 0
18 1 1.1450442610743268 0.807719815430495 34.37598003674496 0 0 0
882 1 1.8288200804810868 2.094930847772821 34.470103783777056 0 0 0
24 1 1.1108536893488419 3.3250917632753283 34.49582199959546 0 0 0
1398 1 2.158015818992507 3.59939518923073 37.7182533672557 0 0 0
1614 1 4.266174059186124 2.385715104681905 37.96301382324923 0 0 0
576 1 4.943282905480935 3.641338822861061 37.996360711241856 0 0 0
534 1 0.6994530911406606 1.1432443499060898 37.72852082600288 0 0 0
570 1 4.959295490539649 1.1418208527385179 37.908209367884396 0 0 0
1620 1 4.250401498121271 4.833911034227883 37.910608449550516 0 0 0
1440 1 6.403266464389138 6.055593994335205 37.724742521862446 0 0 0
750 1 2.8809833059430168 2.319971049574215 37.76242193650591 0 0 0
540 1 0.7368160463214012 3.579133740417726 37.78245266847415 0 0 0
1590 1 4.307448099482352 7.258383003192881 37.96002006633185 0 -1 0
1392 1 2.168768232436805 1.0896058001960236 37.740219550989174 0 0 0
1434 1 6.401222667135955 3.558207012220988 37.912564294497514 0 0 0
1428 1 6.335350084590426 1.0968018465361566 37.97647348507616 0 0 0
546 1 4.991391497850149 6.0452602080713955 37.869613902371476 0 -1 0
510 1 0.7104219071756462 6.079790558575896 37.73802250992203 0 -1 0
1404 1 2.154619157045524 6.1158898179833745 37.68053510937961 0 0 0
756 1 2.8518748528831157 4.83035392565745 37.73102633222835 0 0 0
726 1 2.8427613292017178 7.352698108023552 37.90328713386007 0 -1 0
1104 1 3.995669923977231 3.2865676288304995 34.560890267658536 0 0 0
1584 1 0.04410938139718468 4.856882516640131 37.77531872879919 0 0 0
54 1 5.409287222984379 0.8339515684769347 34.69508617675437 0 0 0
234 1 3.2640645196778757 2.089171042918148 34.62216701479432 0 0 0
894 1 1.8486226622782982 7.018990633419199 34.6957576077594 0 0 0
240 1 3.2512100263362633 4.484029934946784 34.62681749168151 0 0 0
924 1 6.083215242609466 4.500517502776944 34.65350243035393 0 0 0
60 1 5.3976339805794264 3.2808766253443564 34.55994729541155 0 0 0
66 1 5.37468640228561 5.743774605395075 34.79641946407423 0 0 0
1110 1 3.945843715371436 5.709732971449399 34.8628667175868 0 0 0
918 1 6.135447389530901 2.040956535610629 34.600879927645614 0 0 0
30 1 1.1223783555866673 5.758013788033869 34.60205406441034 0 0 0
930 1 6.108251485407825 6.9767559053520145 34.62480552408831 0 0 0
246 1 3.2493607127390334 6.9106787355542565 34.895382722006325 0 0 0
1098 1 3.9682504892476747 0.816855620509789 34.70945269479579 0 0 0
888 1 1.836656787685707 4.547433379072813 34.62203434953606 0 0 0
121 1 0.9715732725904459 10.593971865559181 1.7513037039898665 0 0 0
151 1 5.231255213151803 8.136494208013904 1.5434458998399019 0 0 0
1207 1 3.808232847016829 13.064275526398077 1.7377068532962674 0 0 0
115 1 0.923616086740175 8.156411761480586 1.648161009612535 0 0 0
1195 1 3.8333927020632 8.182067890592203 1.468209153899847 0 0 0
163 1 5.215491688897999 13.041206377513715 1.733439606017861 0 0 0
343 1 3.1214878466518003 14.306882448176282 1.6676506846176316 0 0 0
985 1 1.7013284274527631 11.74123270660269 1.7555590259246745 0 0 0
1021 1 5.922601226775242 11.822236288763422 1.8977215580423055 0 0 0
157 1 5.211284536141899 10.563904319363884 1.759435523765811 0 0 0
127 1 1.0219672897203251 13.057783627979019 1.7174827745061854 0 0 0
1027 1 5.945445611189292 14.287778235054553 1.6834132357829499 0 0 0
337 1 3.137095149979306 11.81178093501479 1.8369265487172781 0 0 0
1201 1 3.7713168256423386 10.556249052979158 1.7495642147896515 0 0 0
331 1 3.0667606260423277 9.382999190491933 1.5886204639176569 0 0 0
979 1 1.6399805759925792 9.394369218901783 1.6408502405042549 0 0 0
991 1 1.692154816860012 14.282643397040028 1.7035297366943973 0 0 0
1015 1 5.998533473663849 9.32788094420841 1.6908475839062855 0 0 0
577 1 0.14235476122834861 8.784091458401326 4.97325946749547 0 -1 0
583 1 0.1494313053684536 11.243585039900474 4.889004670224744 0 -1 0
823 1 2.3149894975374274 7.633171453469596 4.955650163602106 0 0 0
1471 1 1.580499392373969 8.834879009506729 4.915660532654976 0 0 0
793 1 2.2787069717902515 10.073516231095345 4.922011057130635 0 -1 0
1687 1 3.737182761385821 7.573553118791562 4.846672481161163 0 0 0
613 1 4.444661172835694 8.832088189526962 4.939650863514943 0 -1 0
1507 1 5.880691559100721 8.796010830298613 4.9516008837907535 0 0 0
1441 1 1.552052992632035 11.295045919602341 4.9488693394351335 0 -1 0
1477 1 5.8707370399961 11.280004649807553 4.911697129496445 0 -1 0
589 1 0.16410251947526974 13.759365783645134 4.879475618088754 0 -1 0
140 1 3.062091933584871 13.973812507711246 8.335166800857778 0 0 0
1208 1 5.908064812690389 8.999377370529965 8.348752049358 0 0 0
302 1 0.9441537542928858 7.838242836365642 8.316503258144664 0 0 0
986 1 3.697010697020999 7.791141924638114 8.30061507212647 0 0 0
314 1 0.9324278370101508 12.763526297843011 8.345678817739095 0 0 0
1214 1 5.860136270493354 11.490774893002445 8.162530690258603 0 0 0
998 1 3.7514919912689844 12.744203293293356 8.22340030884687 0 0 0
134 1 3.0808380779813818 11.489620543525724 8.338719025327585 0 0 0
344 1 5.165525483735956 10.25314307893632 8.37230744220983 0 0 0
308 1 0.9438187403644714 10.27684886706969 8.299305844164296 0 0 0
1172 1 1.6324380107398544 9.021255669407752 8.339312243920366 0 0 0
992 1 3.7358385407966024 10.24150810182763 8.345210438999525 0 0 0
1220 1 5.85520653954491 13.957620532450328 8.205393758893413 0 0 0
338 1 5.117791798005558 7.807291653662018 8.20688933730609 0 0 0
350 1 5.135561867351344 12.714904635995413 8.148734526172762 0 0 0
1178 1 1.6226123265254098 11.493917021764648 8.241246791596033 0 0 0
128 1 3.0124757380310343 9.024419752328495 8.356351559952353 0 0 0
1184 1 1.6312269263746568 13.963461414096109 8.300356711111952 0 0 0
625 1 4.4813094460165095 13.707313919607712 5.035921450038886 0 -1 0
1483 1 5.891693956627017 13.712051979948084 5.0325900893920235 0 -1 0
1657 1 3.724479630545521 10.048919719786456 4.985596202966977 0 -1 0
1663 1 3.728113745990857 12.470882314586772 5.03652856324801 0 -1 0
619 1 4.447534531962118 11.276308123398248 5.0321993678961086 0 -1 0
799 1 2.2559586031724095 12.512851107683543 5.060488794354676 0 -1 0
1447 1 1.5616657726222591 13.73249477543956 5.1177515854296765 0 -1 0
1322 1 1.6725341247812326 14.085374038428554 11.318196860952945 0 0 0
1316 1 1.6967271029031439 11.653167773501844 11.601768339110897 0 0 0
1532 1 3.780244619615953 10.405801145535273 11.649815753818613 0 0 0
674 1 2.3930944351237926 12.86779499834954 11.51435928119565 0 0 0
662 1 2.394839496690143 7.973451709209041 11.587090392309307 0 0 0
458 1 0.2499254792288969 11.578716694587335 11.625721619479512 0 0 0
1310 1 1.662520836794932 9.207219124636001 11.619828527098417 0 0 0
1346 1 5.9878398689816805 9.169456669097604 11.781720156830936 0 0 0
500 1 4.501064735320669 14.133830061617129 11.67197873844204 0 0 0
668 1 2.3720544327014217 10.417666775607417 11.66652017323847 0 0 0
452 1 0.2543408105214714 9.166664740384213 11.614874530036946 0 0 0
488 1 4.523955563517054 9.198865105665357 11.802026351892923 0 0 0
464 1 0.2532359149913363 14.058114423962133 11.436008828005171 0 0 0
1538 1 3.7884523682037763 12.933534276320438 11.787044355264412 0 0 0
494 1 4.469407569065645 11.633300822900395 11.769418094861452 0 0 0
1526 1 3.808901652902097 7.972220094959345 11.691123606100536 0 0 0
1358 1 5.901989374253878 14.128197560833918 11.542465587106898 0 0 0
1352 1 5.920501133313344 11.602690212403527 11.690132026239157 0 0 0
1275 1 6.049909706723482 14.372762816825544 14.729309579969222 1 -1 0
1689 1 6.227028073726663 10.920737440956595 18.483597691140567 1 0 0
1647 1 1.931079362558599 8.560915309345043 18.027376347776077 1 0 0
1683 1 6.178182018271927 8.483724384312088 18.24822784239264 1 0 0
1653 1 1.9779384873941157 10.936207860074967 18.21031453495185 1 0 0
1623 1 1.9476124796766396 13.423504565827056 18.1203070977865 1 -1 0
585 1 2.690350586879403 14.657845228241907 18.14261719434458 1 -1 0
1473 1 4.100236254460632 12.182753278505265 18.184517019053718 1 0 0
825 1 4.789738937753237 10.945957336590942 18.42067258958064 1 0 0
1467 1 4.060827811949255 9.773176714397083 18.406317977066003 1 0 0
795 1 4.78835010718781 13.411106664463826 18.035709523513237 1 -1 0
759 1 0.5308205469215236 13.448950219473252 18.170020629143266 1 -1 0
579 1 2.670595474519423 12.166876785343954 18.175462021618426 1 -1 0
783 1 0.5198768736644286 8.563144003220275 17.98368367419486 1 0 0
1659 1 6.213875753646782 13.439423030395941 18.200064236884003 1 -1 0
819 1 4.773513802567999 8.518364547255766 18.330957927799247 1 0 0
789 1 0.5443629131879861 10.97574394630699 18.1406191136832 1 0 0
609 1 2.6775684383555522 9.754025758406002 18.275796662032487 1 0 0
1227 1 1.815925650673102 9.450833246119938 14.881032731739925 1 -1 0
1443 1 4.133194453782465 14.628496281963704 18.02025139447333 1 -1 0
363 1 1.050817983797597 10.695916677397506 15.020142235180643 1 -1 0
183 1 3.2306237689122717 9.434782106424361 14.877080059321957 1 -1 0
1233 1 1.8329126567354235 11.925910169270402 15.091418496534203 1 -1 0
369 1 1.0905831047732673 13.085362945792967 14.972778745181191 1 -1 0
1263 1 6.089520642890692 9.438121675092926 14.95851621625013 1 -1 0
1077 1 3.937348035122106 8.164832284243953 14.869313194168763 1 0 0
399 1 5.368824528822228 10.670481069639475 14.958798814781428 1 -1 0
1269 1 6.13085027348427 11.872635682784907 14.932743323281528 1 -1 0
1053 1 4.0054782068861625 13.07864933294643 15.026398523395684 1 -1 0
195 1 3.2906665343469568 14.289917500515134 14.937416249479165 1 -1 0
1047 1 3.9410790928425765 10.700339662699665 14.952057767084671 1 -1 0
189 1 3.2451772964984804 11.92993175899319 15.071735588839639 1 -1 0
405 1 5.398144442392113 13.123241759544571 14.96171020503815 1 -1 0
393 1 1.0915748836704853 8.257074631689129 14.861077697850135 1 0 0
429 1 5.382198447501101 8.195658845952606 14.843354107206883 1 0 0
1239 1 1.8265820464437716 14.317134205394881 14.840226000632791 1 -1 0
214 1 0.9391543035042867 13.69400514108915 21.40505427402255 1 0 0
202 1 0.9444485622584158 8.743456583702022 21.375917389083956 1 0 0
886 1 5.8973392576538 9.919764167330348 21.46207358864257 0 0 0
1066 1 1.6732776546895045 9.956994699753533 21.388893784537775 1 0 0
28 1 5.183197323346501 11.128464726062976 21.61151944500817 0 0 0
1072 1 1.6418057737195204 12.46005606539738 21.335943832722165 1 0 0
208 1 0.9664096863118571 11.213382139289124 21.334049122094964 1 0 0
418 1 3.0841532872101665 9.918479444401923 21.564127800646588 1 0 0
412 1 3.0419194935134346 7.510370433829268 21.598089848913826 1 0 0
892 1 5.885757227664435 12.396714095288717 21.489698680136176 0 0 0
34 1 5.145784403413466 13.63695368457052 21.36256442220734 0 0 0
424 1 3.042808162541397 12.401494589057396 21.32449249192629 1 0 0
1288 1 3.747979567540536 11.174826632335742 21.44792200192438 1 0 0
22 1 5.190228427340288 8.701625781999788 21.451611204067383 0 0 0
1282 1 3.7822425288522483 8.693423737890132 21.513889560411116 1 0 0
1060 1 1.6150534053726524 7.492382903585077 21.52247458366368 1 0 0
1294 1 3.7749591877461954 13.623423245668349 21.331630227078456 1 0 0
880 1 5.909999162787374 7.489062832563951 21.412039312712004 0 0 0
802 1 2.7543069993010243 8.524566978721364 24.676535961768142 1 0 0
592 1 0.6751110785329939 9.719419813069447 24.649828503758226 1 0 0
1492 1 6.331832979043156 12.233111396251488 24.534797194771322 1 0 0
1450 1 2.080610318095323 9.753349187420913 24.530306071980554 1 0 0
1486 1 6.358848098749335 9.808677104314462 24.576771349505034 1 0 0
634 1 4.916990345010302 12.225967968340342 24.594685869607506 1 0 0
1672 1 4.229871261785588 10.985932796519194 24.493904830466736 1 0 0
640 1 4.953242263895572 14.700314146310157 24.617128312996506 1 0 0
1678 1 4.263444025362532 13.483024531983892 24.600589077234037 1 0 0
628 1 4.914098922861994 9.765900843191789 24.529138881827503 1 0 0
1456 1 2.128761225619773 12.227798039387574 24.47924639219836 1 0 0
598 1 0.6962291386284571 12.194131978747986 24.584927788234662 1 0 0
808 1 2.8355648961615443 10.98363659189805 24.472045641698006 1 0 0
814 1 2.8622678533423347 13.42433587526542 24.524839834656913 1 0 0
1666 1 4.184948430936697 8.540898715483685 24.585801624121206 1 0 0
1271 1 6.170126860336657 9.680332298515683 27.976478594130185 1 0 0
377 1 1.2019896274083364 13.322105368052751 27.944684577549356 1 0 0
365 1 1.1961034385548304 8.388975118569629 27.995473054850883 1 0 0
1235 1 1.8757312908041106 9.607786428841482 27.937308575340065 1 0 0
203 1 3.3961757262593566 14.522335752719568 28.037508967715752 1 0 0
1241 1 1.8861802328650867 12.089988351067237 27.941353899436752 1 0 0
1055 1 4.063862369865889 10.861106895582711 27.842438054552296 1 0 0
1283 1 6.173999081234346 14.486222353258418 27.972257227150372 1 0 0
407 1 5.4660866124375715 10.896743210761468 27.90359203294563 1 0 0
197 1 3.3486868670151724 12.061216447366785 27.8338692609967 1 0 0
401 1 5.455746720597548 8.446774572525479 27.94398122416232 1 0 0
1277 1 6.225172780234215 12.1013982740874 27.791132408210945 1 0 0
1049 1 3.9990180542010454 8.442335781546614 27.954199887791543 1 0 0
371 1 1.1759161608586974 10.842530085672935 27.872888741129323 1 0 0
1247 1 1.927612998610206 14.577809181845513 27.922341872679183 1 0 0
191 1 3.2831896839736343 9.644506225294087 27.865348616364674 1 0 0
413 1 5.476615151994804 13.28033333281119 27.837108664383994 1 0 0
1061 1 4.087272992068992 13.261284175681322 27.93868952530153 1 0 0
1498 1 6.347000390075166 14.725432045601988 24.69957552654308 1 0 0
604 1 0.7304670621885837 14.691216327142508 24.755108489554708 1 0 0
1462 1 2.1155078465026924 14.61115319637185 24.783842115615354 1 0 0
1307 1 5.8875408471135176 9.23002881561853 31.435520330003058 0 0 0
1703 1 3.7674323243044445 8.009493729678319 31.328804756778645 1 0 0
1709 1 3.8215657320950434 10.468069212872754 31.357361481890102 1 0 0
1319 1 5.962813160075679 14.166466529004458 31.313422480463952 0 0 0
845 1 2.4100253741384874 10.510856350318145 31.373002200830655 1 0 0
449 1 4.494035913934901 9.211977992963599 31.376953789455463 0 0 0
455 1 4.574624692346762 11.73423879279472 31.413003426917417 0 0 0
629 1 0.23447356867003216 9.270865669336764 31.266644864077456 1 0 0
851 1 2.4019916655242497 13.032439274642316 31.227775848429914 1 0 0
1487 1 1.6513732997634356 9.28422862408021 31.285265273231513 1 0 0
461 1 4.55515019142768 14.192186019665085 31.308276059368332 0 0 0
1493 1 1.7109905202672469 11.801805336247545 31.31015937861086 1 0 0
839 1 2.3302810983248436 8.011073652122711 31.26430628557312 1 0 0
1715 1 3.8119887296694555 12.962755316563657 31.372778216060787 1 0 0
635 1 0.2818256564794793 11.742716318029979 31.324015516318028 1 0 0
1313 1 5.982320455287004 11.724275622357956 31.45364264242564 0 0 0
641 1 0.19774386806088337 14.249637342549756 31.217048753233477 1 0 0
1499 1 1.6647971617795692 14.276379852840899 31.134671404308385 1 0 0
876 1 1.8736334182900447 14.40457494568775 34.433015850059284 0 -1 0
12 1 1.199762676726962 13.141798938945747 34.4889507489732 0 -1 0
870 1 1.8154518442496532 11.901692583816475 34.52590471033149 0 -1 0
1386 1 2.0971498298314986 13.46473854499927 37.913829539653214 0 -1 0
1608 1 4.241953886957399 14.692458414300566 37.863115175671645 0 -1 0
1416 1 6.388351265855236 10.950318027503963 38.02687748300293 0 -1 0
1374 1 2.1186652735786367 8.574629744482882 37.83576469736975 0 -1 0
522 1 0.7331939802218944 11.021783254093297 37.86686527871034 0 -1 0
564 1 5.017615788037655 13.40348407948151 37.80075117144847 0 -1 0
738 1 2.872932477582412 12.195697160128699 37.869448740688654 0 -1 0
552 1 4.977238660516494 8.502984058280129 38.02035579478277 0 -1 0
1422 1 6.411866304010666 13.449662020612667 37.78900022569268 0 -1 0
1602 1 4.246928228787483 12.237285107425643 37.91086972347744 0 -1 0
516 1 0.710579992668017 8.587218076460967 37.851982559261316 0 -1 0
528 1 0.672882597773774 13.479519250355084 37.93684107726844 0 -1 0
1410 1 6.389593059642131 8.53184279095553 37.91129102093391 0 -1 0
1380 1 2.1595050064902157 10.9919497188566 37.852188375886655 0 -1 0
744 1 2.8430015449471506 14.639515825350617 37.88332697885232 0 -1 0
732 1 2.8458966750265344 9.764114958298098 37.825785073202006 0 -1 0
558 1 5.02185005930257 11.018231477111408 37.97880221491508 0 -1 0
1596 1 4.28934848452373 9.768424806837457 37.91803432768471 0 -1 0
1092 1 3.9780235216520046 13.137250173981618 34.690302931282616 0 -1 0
228 1 3.2815394841694414 14.375577295924833 34.683292390823354 0 -1 0
912 1 6.147039215122246 14.35516536770761 34.746752931653006 0 -1 0
72 1 5.3843490924194075 8.19679184543202 34.70075446302237 0 0 0
48 1 5.441580671192912 13.174204054811883 34.778838625339695 0 -1 0
222 1 3.2581956243604657 11.909192776511402 34.54242633191403 0 -1 0
42 1 5.389006960702016 10.695568743813148 34.82249425586407 0 -1 0
906 1 6.098333574160362 11.917367771884086 34.73450275956003 0 -1 0
6 1 1.1110094651903493 10.68617419306457 34.64473190463377 0 -1 0
1116 1 3.9505825172277715 8.170708836302092 34.85669018728891 0 0 0
900 1 1.8353425592677424 9.464329402327254 34.68416512901389 0 0 0
252 1 3.255255047719298 9.385743584264633 34.85531250899768 0 0 0
936 1 6.09452524630971 9.391446796499622 34.80936562055443 0 0 0
36 1 1.1405391222425787 8.220663489025611 34.59994536580568 0 0 0
1086 1 3.945028568071301 10.657059141780872 34.81688136357697 0 -1 0
421 1 11.666575979439381 1.903354654880714 1.8471468304425631 0 1 0
211 1 9.580153171633555 3.1879348186553402 1.652705179709679 0 1 0
1255 1 8.129005409877683 3.2235613442379187 1.661866397950548 0 1 0
1261 1 12.414074441911632 5.596491033716628 1.6139885671939664 0 0 0