LAMMPS (8 Apr 2021)
  using 1 OpenMP thread(s) per MPI task
read_restart    output/lj.restart-10.16000
Reading restart file ...
ERROR on proc 0: Cannot open restart file output/lj.restart-10.16000: No such file or directory (src/read_restart.cpp:112)
