ITEM: TIMESTEP
1000
ITEM: NUMBER OF ATOMS
191
ITEM: BOX BOUNDS pp pp pp
0.0000000000000000e+00 1.2000000000000000e+01
0.0000000000000000e+00 1.2000000000000000e+01
0.0000000000000000e+00 1.2000000000000000e+01
ITEM: ATOMS id type x y z
12 1 1.20509 0.848646 4.8824
1 1 2.45416 2.21262 3.44646
118 1 0.0568909 0.931156 4.21542
31 1 2.7963 1.20012 8.59879
32 1 1.33362 1.11411 8.47168
11 1 0.524598 1.20419 7.34151
17 1 2.71238 2.40746 6.16634
13 1 1.38231 1.67759 6.10224
28 1 0.600435 1.06936 9.68613
29 1 0.380463 2.49177 10.0643
30 1 1.54051 2.88833 10.6729
38 1 2.76966 2.1392 10.5977
4 1 2.18611 3.42645 1.49308
6 1 1.37529 4.1638 0.681185
7 1 0.316389 4.7799 1.23673
5 1 2.72351 3.38718 2.80547
53 1 0.358511 5.83537 4.1516
14 1 2.48962 3.77126 6.47623
22 1 1.04066 4.12647 6.92577
63 1 0.861504 4.89394 8.19573
34 1 1.60511 4.1806 11.3394
64 1 1.84804 5.17285 10.4568
66 1 1.97643 4.87993 9.13738
39 1 0.181589 8.50532 0.712513
43 1 2.65505 8.15867 0.868042
42 1 1.41328 7.99508 1.5577
45 1 0.410238 6.0196 1.6437
40 1 0.607622 6.50916 2.98891
41 1 1.37971 7.70322 2.91852
54 1 2.3679 6.52629 5.21292
50 1 2.14686 8.46843 3.69532
52 1 1.04645 6.21113 5.25484
60 1 2.43505 7.90596 4.88676
59 1 0.319578 6.54721 6.41356
67 1 1.82448 7.31926 8.10585
71 1 0.824954 6.39916 7.65354
108 1 1.50378 8.72625 8.5489
75 1 1.63839 8.73584 10.9
76 1 2.39605 7.75422 11.4558
77 1 2.36185 6.3648 11.1126
89 1 1.68557 10.4378 0.778156
84 1 1.26087 10.293 2.26055
96 1 1.39937 10.5244 5.80047
21 1 1.92503 11.6793 5.0829
83 1 1.97272 9.86486 3.45811
109 1 0.460584 9.13924 7.92927
107 1 1.96788 9.23301 9.68906
80 1 0.964113 9.47731 11.8748
3 1 3.46182 1.23958 3.5408
16 1 4.12741 0.164967 5.50129
2 1 4.94593 1.47411 3.18049
9 1 5.79569 2.82726 7.153
24 1 5.70492 2.43076 8.65892
26 1 5.83625 0.933983 8.58776
10 1 5.33926 2.06308 6.16372
18 1 3.95423 1.52412 6.0336
25 1 3.47206 2.22466 9.36298
36 1 3.1563 1.05003 11.3995
48 1 4.33373 4.65548 0.709691
44 1 5.99016 5.22315 2.44868
46 1 4.83482 4.57961 2.03733
8 1 3.91788 4.06314 2.96916
58 1 5.89245 4.77236 5.62939
56 1 5.05263 5.94244 5.47293
51 1 3.61934 5.79543 5.77172
70 1 3.40603 5.25056 8.37877
57 1 3.29911 4.88631 6.83742
78 1 5.12797 4.29346 11.5245
68 1 4.40579 4.42649 9.42396
69 1 5.059 5.21573 10.3426
27 1 4.47806 3.0505 9.22505
47 1 5.19546 7.94796 2.43487
82 1 4.90455 8.78538 1.39948
92 1 5.0144 8.61295 3.70179
55 1 5.95341 7.18716 5.53858
73 1 4.19161 7.74413 8.55678
62 1 5.53684 7.49362 7.95057
65 1 3.19209 6.8109 8.4114
61 1 5.63671 8.06901 6.60218
72 1 5.55993 6.5066 10.3029
81 1 5.54413 7.76087 11.0694
88 1 3.49987 11.0428 2.1632
85 1 3.16455 10.4098 1.00517
91 1 5.91697 9.71594 1.04399
90 1 3.67653 9.11918 1.0001
94 1 5.51007 11.7138 5.47563
97 1 5.54044 10.2859 5.25334
87 1 3.11333 10.7168 3.43176
20 1 3.18504 11.8843 4.2963
95 1 5.89847 9.73487 4.04418
93 1 5.64775 9.60237 6.45837
100 1 5.39615 10.4731 7.59658
101 1 5.51693 9.71445 8.84227
106 1 4.93343 11.8978 7.96221
33 1 3.59975 11.9983 8.55921
98 1 3.50555 11.1841 9.68144
103 1 3.22428 11.7935 10.9441
99 1 3.27887 9.79207 9.59418
102 1 4.32834 9.07969 9.01661
114 1 8.60925 1.0636 0.341457
15 1 6.28686 1.03729 5.36838
19 1 6.14573 1.31933 3.9212
121 1 7.76238 0.614062 5.91285
128 1 8.88866 2.97665 3.70562
129 1 8.35478 0.18746 9.37563
130 1 8.26103 2.13424 11.4211
137 1 7.02759 0.504277 9.32774
134 1 6.96563 2.54662 10.8961
35 1 6.87822 2.8466 9.43909
147 1 8.12484 3.78741 2.81579
139 1 8.95702 4.71955 2.11283
141 1 6.86754 4.534 3.29409
150 1 8.14886 4.52859 5.47536
156 1 6.87198 4.6036 4.71775
151 1 8.27125 5.07366 6.80782
166 1 7.22697 4.60737 7.64401
23 1 6.11789 4.13615 6.99852
167 1 7.57641 4.01855 8.90824
165 1 8.33637 4.89564 9.7276
37 1 6.09022 3.28999 11.648
49 1 6.32647 6.66491 2.15676
140 1 7.99375 7.68454 0.383597
142 1 8.58072 7.38481 2.5869
145 1 6.96274 6.67636 0.681379
171 1 8.11027 8.45739 1.63405
144 1 7.31434 7.04926 3.2988
148 1 7.18411 7.1601 4.73754
154 1 8.35935 7.1502 5.53352
153 1 8.1698 6.55922 6.73473
162 1 8.58165 7.49694 7.74916
184 1 8.14193 8.93666 7.51019
188 1 7.99517 8.26872 11.0671
74 1 6.48352 6.90777 9.14608
160 1 7.81743 7.2395 9.89896
169 1 7.09657 9.53003 1.87342
174 1 7.97704 10.9841 3.56656
170 1 6.93637 10.1165 3.21665
177 1 8.34338 9.55504 6.12299
178 1 8.10362 11.1346 6.34415
180 1 7.89147 9.70405 8.60484
181 1 8.60636 10.9521 8.71045
185 1 8.91145 11.4014 7.40967
104 1 6.73251 9.58153 9.41521
110 1 6.49943 9.08283 10.8292
86 1 6.07477 10.1283 11.7812
115 1 10.3233 1.23323 2.44296
116 1 11.6482 0.993539 2.82226
112 1 9.70433 1.22206 1.2498
111 1 9.4857 1.66562 3.53701
126 1 10.9251 0.207048 4.75638
120 1 9.76984 1.11383 4.82804
123 1 9.07273 1.35593 5.95414
127 1 9.85358 0.871564 7.35898
189 1 11.3665 0.497339 7.24559
131 1 9.26943 1.27343 8.8753
135 1 9.92736 2.45712 9.72437
136 1 9.31994 2.91918 10.9834
105 1 11.8296 0.0101488 10.1355
119 1 10.0568 4.12402 1.1601
117 1 11.2913 4.10232 1.87838
157 1 11.3328 4.9189 4.17809
124 1 9.18021 3.70881 5.01453
146 1 11.3855 3.97031 3.30822
138 1 10.2186 5.74187 3.89366
161 1 10.2777 4.94223 8.31128
155 1 9.72347 4.77316 7.05922
133 1 11.4486 4.36918 8.8939
122 1 11.7791 3.7662 6.22739
125 1 10.4313 4.01175 6.05778
163 1 9.44619 5.61201 9.18789
113 1 9.86272 3.82653 11.855
132 1 11.2015 3.12199 9.46298
143 1 9.41135 6.11047 2.82495
168 1 11.139 7.60473 0.563201
149 1 9.69535 7.6531 5.41856
152 1 10.827 7.13612 6.19421
159 1 9.168 7.09184 8.9772
158 1 11.2905 7.02504 10.2119
164 1 10.4181 7.84684 9.49228
79 1 11.2299 6.74242 11.5198
172 1 10.0074 10.0659 4.56232
173 1 11.0291 10.7553 5.07982
175 1 9.42791 9.05859 5.30838
179 1 9.28849 10.6904 3.58403
182 1 11.2861 9.8532 8.11419
186 1 11.4828 11.032 7.29613
176 1 11.9937 10.5963 6.03074
187 1 10.2157 9.88624 10.5578
190 1 10.9942 11.1135 10.7664
183 1 10.5117 9.3033 9.2034
191 1 9.03 9.33326 11.045
ITEM: TIMESTEP
2000
ITEM: NUMBER OF ATOMS
191
ITEM: BOX BOUNDS pp pp pp
-1.1129419364253651e-01 1.2111294193642550e+01
-1.1129419364253651e-01 1.2111294193642550e+01
-1.1129419364253651e-01 1.2111294193642550e+01
ITEM: ATOMS id type x y z
12 1 1.18892 0.628063 4.79534
118 1 0.122645 0.319998 3.84519
13 1 1.24863 1.40247 5.98241
31 1 2.62045 0.949978 8.68861
32 1 1.13296 0.779067 8.56401
11 1 0.52816 0.793577 7.19223
17 1 2.4313 2.09 6.16805
28 1 0.213249 0.997708 9.69196
38 1 2.63954 2.04989 10.7774
30 1 1.43537 2.65633 11.0459
29 1 0.256309 2.32705 10.2814
7 1 0.40223 4.87883 1.40328
6 1 1.10927 3.83153 0.77184
45 1 1.00822 5.88032 1.9819
4 1 1.8613 2.87906 1.42349
53 1 0.444161 6.03583 4.27906
14 1 2.22093 3.53276 6.55036
22 1 0.865259 3.94154 7.01816
63 1 0.684775 4.60602 8.27409
34 1 1.35276 3.96524 11.6091
64 1 1.82958 5.0731 10.6513
66 1 1.88427 4.64601 9.11427
39 1 0.257523 8.6802 0.837429
43 1 2.48892 8.13254 0.741331
42 1 1.40115 8.06532 1.64366
54 1 2.36689 6.69282 5.55828
50 1 2.3045 8.74503 3.85846
52 1 0.993898 6.34743 5.597
40 1 0.934581 6.55672 3.14919
60 1 2.6735 7.99578 5.06344
41 1 1.63304 7.76472 2.96152
108 1 1.41925 8.47982 8.54171
67 1 1.71877 7.07969 8.20886
71 1 0.635952 6.35289 7.80667
59 1 -0.084194 6.5585 6.73293
77 1 1.97099 6.35692 11.2504
76 1 1.93174 7.68201 11.6563
75 1 1.26226 8.85261 11.0192
89 1 1.52662 10.7409 0.740235
84 1 1.43606 10.5511 2.15435
80 1 0.76666 9.70943 -0.0389213
83 1 2.26185 10.0779 3.34027
21 1 1.88487 11.679 5.04169
96 1 1.22527 10.5694 5.66661
176 1 -0.20303 10.6378 5.94013
109 1 0.192692 8.98195 8.04643
107 1 1.81119 9.2313 9.70321
3 1 5.10937 1.18558 1.93305
1 1 3.88683 1.82275 2.14409
16 1 4.13551 0.0523268 5.54793
18 1 3.86201 1.45251 5.89313
9 1 5.66582 2.88072 7.28578
24 1 5.66439 2.28412 8.70289
10 1 4.98236 2.10777 6.31762
26 1 5.76841 0.876765 8.97176
25 1 3.08062 2.14278 9.48515
36 1 2.93813 0.885966 11.6545
48 1 4.24962 4.94746 0.617868
44 1 5.53287 5.24502 2.67079
46 1 4.40507 4.7916 2.02504
8 1 3.43611 4.00648 2.67408
5 1 2.89783 2.76931 2.36402
56 1 5.04276 5.77272 5.67142
51 1 3.57371 5.79435 5.94794
70 1 3.16566 5.16096 8.41829
57 1 3.17354 4.63391 6.90081
78 1 4.86875 4.63451 11.6067
68 1 4.23608 4.46624 9.22456
69 1 4.85077 5.25882 10.2601
37 1 5.62707 3.48004 11.5702
27 1 4.31564 2.97597 9.18801
47 1 5.06539 7.77606 2.40194
82 1 4.61263 8.58876 1.44075
90 1 3.4304 9.13124 0.913596
92 1 5.10831 8.37351 3.74507
73 1 4.0903 7.65982 8.59619
62 1 5.46115 7.4838 8.05147
61 1 5.76429 8.06466 6.74682
65 1 3.08334 6.711 8.47481
102 1 4.24889 8.99212 9.1306
72 1 5.40029 6.47695 10.0547
81 1 5.45686 7.55108 10.9463
88 1 3.57101 11.3256 1.99507
85 1 3.09186 10.853 0.524792
91 1 5.75009 9.54602 1.08124
87 1 3.34319 11.0671 3.355
94 1 5.49317 11.7454 5.386
20 1 3.19738 11.6964 4.62549
97 1 5.51107 10.2866 5.30303
95 1 5.7067 9.62158 4.03902
93 1 5.50142 9.63306 6.57086
100 1 5.32371 10.6765 7.76782
33 1 3.53608 12.1439 9.11398
101 1 5.4696 9.70091 8.88127
106 1 4.87392 12.1378 8.28614
98 1 3.36319 11.1204 10.1513
99 1 3.22934 9.75218 9.85374
103 1 3.27324 11.6454 11.466
86 1 5.90988 9.88514 11.9308
114 1 8.73907 1.76633 0.37799
2 1 6.23146 1.2379 2.73705
15 1 6.89414 0.126749 4.97539
19 1 6.98653 0.717961 3.61789
121 1 8.15808 -0.0530679 5.7072
129 1 8.15568 0.318155 9.54053
130 1 8.16692 2.44539 11.4958
137 1 6.73202 0.416781 10.0346
134 1 6.71031 2.75339 11.1224
147 1 7.87985 4.60808 2.35333
139 1 9.1025 5.38538 2.01892
141 1 6.63548 4.5029 3.22737
150 1 8.23079 3.7415 4.96406
156 1 6.86102 4.20148 4.65531
58 1 5.82973 4.58306 5.80724
151 1 8.49272 5.25532 6.95215
166 1 7.4185 4.50355 7.69972
23 1 6.23343 4.03964 7.05052
167 1 7.54789 4.04813 9.03883
165 1 8.61843 4.44854 9.80235
35 1 6.67629 3.02697 9.52566
171 1 7.95985 8.49951 1.47478
140 1 7.6768 7.68555 0.284434
142 1 8.22101 7.52511 2.68402
145 1 6.69136 6.4997 0.752275
49 1 6.01001 6.62351 2.23646
144 1 7.12263 7.00137 3.39498
148 1 7.09506 6.93568 4.7875
154 1 8.40003 7.04818 5.40593
55 1 5.80913 7.11149 5.58097
153 1 8.28881 6.62354 6.69659
162 1 8.6424 7.64502 7.81603
184 1 8.48481 8.98723 7.66152
188 1 7.86392 8.31944 11.1535
160 1 7.67942 7.22512 9.73578
74 1 6.31261 6.8683 9.08565
159 1 9.02416 7.04566 9.09236
110 1 6.53408 9.02412 10.8377
169 1 6.89502 9.46332 1.85498
174 1 8.01186 10.7658 3.47454
170 1 6.94665 10.0059 3.23149
177 1 8.9214 9.60808 6.39518
178 1 8.83169 11.1274 6.4383
180 1 7.86873 9.91909 8.69319
181 1 8.31878 11.3001 8.76293
104 1 6.65825 9.61831 9.51773
191 1 9.00166 9.49736 10.9689
115 1 10.8225 1.34103 2.16186
112 1 9.87954 1.26072 1.02617
116 1 12.1713 0.878509 2.56179
111 1 10.1448 2.09087 3.30702
126 1 11.092 0.0514027 4.42092
120 1 10.0874 1.04358 4.40074
123 1 9.04614 0.952481 5.27281
127 1 10.1461 0.64266 7.78058
189 1 11.479 0.159481 7.39857
131 1 9.40354 1.42879 9.05449
135 1 9.9928 2.45006 9.75294
105 1 11.6086 -0.0674541 10.2192
119 1 9.93961 4.79118 1.04515
117 1 11.2328 4.62833 1.73549
157 1 11.3212 5.64332 3.91421
124 1 9.74857 3.6793 4.97313
128 1 10.4939 3.32729 3.84879
146 1 11.119 4.37858 3.16553
161 1 10.4325 5.07881 8.44099
155 1 9.93954 4.83498 7.1081
122 1 11.9036 3.75934 6.19763
125 1 10.5735 4.00759 6.13518
133 1 11.5203 4.3428 8.91144
163 1 9.42965 5.56143 9.28749
136 1 9.13927 3.34978 10.6656
113 1 9.71289 4.36475 11.9841
132 1 11.3498 2.99865 9.59821
143 1 9.33625 6.58601 2.73588
168 1 11.3973 7.83672 0.740772
149 1 9.74569 7.53737 5.08188
138 1 10.1551 6.66452 3.9301
152 1 11.0427 7.27362 6.24207
158 1 11.1045 7.52835 10.4673
164 1 10.3885 7.92701 9.36488
79 1 10.78 7.55106 11.7812
172 1 10.2111 9.99837 4.45687
173 1 11.1421 10.9541 4.82532
179 1 9.31816 10.5838 3.60721
175 1 9.63232 9.02006 5.27331
182 1 11.341 9.85784 8.11732
186 1 11.5114 11.0036 7.22596
185 1 9.30999 11.6739 7.74487
183 1 10.3719 9.29983 9.0029
187 1 10.1278 9.93798 10.2493
190 1 10.8173 11.0725 10.4428
ITEM: TIMESTEP
3000
ITEM: NUMBER OF ATOMS
191
ITEM: BOX BOUNDS pp pp pp
-2.1100649942931712e-01 1.2211006499429340e+01
-2.1100649942931712e-01 1.2211006499429340e+01
-2.1100649942931712e-01 1.2211006499429340e+01
ITEM: ATOMS id type x y z
4 1 1.8161 2.96152 1.44403
12 1 0.860543 0.749692 4.81397
31 1 2.80427 0.584361 8.85507
32 1 1.31421 0.492224 8.59175
11 1 0.692312 0.536941 7.24884
13 1 1.06756 1.42466 6.10315
17 1 2.31053 2.1304 6.11355
28 1 0.338494 0.740424 9.60507
29 1 0.277567 2.09721 9.99971
30 1 1.35639 2.51371 10.9582
38 1 2.53328 1.61105 11.0054
7 1 0.0827452 4.47015 1.46475
6 1 0.970587 3.8021 0.571419
45 1 0.898703 5.41897 2.11162
14 1 2.08496 3.60201 6.61802
63 1 0.548354 4.92397 8.69189
22 1 0.646577 3.60644 6.36291
34 1 1.09126 3.79096 11.6776
64 1 1.43018 4.87534 10.9372
66 1 1.68675 4.67155 9.57943
39 1 0.380029 8.60719 0.562348
41 1 1.46852 7.68879 2.72189
42 1 1.45253 8.02452 1.34263
43 1 2.80723 7.98991 0.719517
54 1 2.45703 6.61812 5.54842
50 1 2.47811 8.39498 3.52544
52 1 0.789556 6.3263 5.53219
40 1 1.01089 6.34684 3.06827
53 1 0.286121 6.1665 4.23667
60 1 2.71091 7.88312 4.76667
108 1 1.48488 8.48111 8.78527
67 1 1.8764 7.1327 8.54274
71 1 0.682333 6.20877 8.04339
59 1 -0.104293 6.62436 6.60185
109 1 0.561384 9.11406 7.76413
75 1 1.77715 8.77876 11.1235
76 1 2.43177 7.44844 11.7202
77 1 1.9584 5.96651 11.6507
89 1 1.69606 10.5092 0.684258
84 1 1.63063 10.2728 2.15336
83 1 2.52458 9.76794 3.18463
21 1 1.54238 11.8942 4.62355
96 1 0.768873 10.7283 4.91192
107 1 2.09789 9.24137 9.85639
80 1 0.905554 9.53382 11.9871
3 1 4.17443 0.166744 1.48852
1 1 3.55829 1.1548 0.879949
5 1 3.13603 2.4903 1.4236
2 1 5.47497 0.340175 2.41582
16 1 3.92583 0.103255 5.21771
18 1 3.66383 1.47385 5.88456
9 1 5.70473 2.74763 7.33757
24 1 5.599 2.07306 8.9779
26 1 5.7876 0.57262 8.84502
10 1 4.79512 2.12878 6.46882
25 1 3.29341 1.59946 9.7209
36 1 2.96673 0.71907 12.0335
37 1 5.62534 2.72536 11.7186
27 1 4.19439 2.6467 9.29282
48 1 4.7579 5.03957 0.200885
44 1 5.30448 5.59634 2.48958
46 1 4.75568 4.54293 1.52886
8 1 4.05144 3.46967 1.91044
58 1 5.79461 4.74538 5.65621
56 1 4.90637 5.89125 5.78263
70 1 3.05459 4.96896 8.83894
57 1 2.87941 4.74553 7.28057
51 1 3.50492 5.72985 6.24771
78 1 4.98993 3.99483 11.7332
69 1 4.88522 4.63859 10.4433
72 1 5.64351 5.92757 10.5691
68 1 4.1001 4.12054 9.37583
47 1 5.15399 8.07508 2.18954
49 1 5.51027 6.83921 1.77596
92 1 5.79072 8.48524 3.41
73 1 4.18222 7.62944 9.04167
62 1 5.49305 7.32685 8.59479
61 1 5.62925 8.07692 7.05119
65 1 3.11581 6.64856 9.00807
81 1 5.45816 6.17602 12.1009
88 1 3.54542 11.4128 1.66434
85 1 3.04552 10.7 0.525046
82 1 4.93801 9.13101 1.21612
90 1 3.65703 9.28144 0.583704
97 1 5.25171 10.2793 5.25035
94 1 5.0867 11.7348 5.31153
87 1 3.56147 10.9281 3.29569
95 1 5.87717 9.82395 3.83133
20 1 2.94405 11.8323 4.39509
93 1 5.37143 9.77907 6.53468
100 1 5.29972 10.6509 7.77525
106 1 5.02981 11.9871 8.42922
101 1 5.48753 9.74716 8.92083
33 1 3.63461 11.9245 8.92279
98 1 3.3798 11.1758 10.2174
99 1 3.36373 9.82014 10.0414
103 1 3.19318 11.6736 11.7072
102 1 4.29973 9.01176 9.34815
114 1 8.79135 2.06832 0.440068
15 1 6.26772 0.0678647 5.19701
123 1 8.77139 0.861082 5.16003
121 1 7.66393 -0.104656 5.5369
19 1 6.16016 0.675142 3.75497
129 1 8.57946 0.164271 9.28992
35 1 6.83694 2.95354 9.7162
137 1 7.09733 0.1574 9.39067
134 1 6.9501 2.68576 11.1447
147 1 7.68049 5.16943 2.37341
139 1 9.04844 5.71427 2.16723
156 1 6.68073 4.70972 4.54402
150 1 7.98962 4.39458 4.80125
141 1 6.46391 5.12582 3.11509
151 1 8.47052 5.10905 7.15592
166 1 7.44738 4.47186 7.78268
23 1 6.36468 3.9492 7.00041
165 1 8.52671 4.71714 10.2699
136 1 8.89854 4.24805 11.6056
167 1 7.4544 4.27278 9.28251
130 1 8.15281 3.08437 12.0423
171 1 7.8262 8.52509 1.59684
140 1 7.54825 7.74753 0.375588
145 1 6.34824 6.8518 0.523523
142 1 8.10929 7.81231 2.72412
144 1 7.0777 7.84029 3.73531
148 1 7.03196 7.27126 5.05691
154 1 8.39771 7.13391 5.58855
153 1 8.44594 6.6421 7.02919
162 1 8.63542 7.61512 7.94397
55 1 5.94243 7.2076 5.94329
188 1 7.96498 8.56265 11.1339
160 1 7.69889 7.55939 10.0604
74 1 6.41047 6.81811 9.67043
159 1 8.9493 7.49216 9.24032
169 1 7.16505 9.75151 1.72632
91 1 6.06784 9.75867 0.759528
174 1 7.80914 11.5107 3.21292
170 1 6.90111 10.5254 2.93644
179 1 8.99857 10.9917 3.39548
177 1 8.5096 9.66644 6.22054
178 1 8.38195 11.2181 6.30889
180 1 8.05443 9.9809 8.54618
181 1 8.70987 11.3657 8.55739
184 1 8.3006 8.9316 7.53783
104 1 6.78469 9.75365 9.40349
110 1 7.02792 9.69556 10.8125
86 1 6.40515 10.2954 11.9438
115 1 10.5715 1.83327 2.30176
112 1 9.88227 1.45265 1.12526
116 1 11.9261 1.37992 2.49632
111 1 10.1204 2.28539 3.49999
120 1 9.88494 1.10517 4.41938
126 1 10.915 0.174278 4.39824
118 1 12.0695 0.784924 3.83103
127 1 10.3537 0.408517 7.74081
189 1 11.691 -0.212681 7.33298
131 1 9.78497 0.904701 9.02409
135 1 10.4064 2.22611 9.46231
119 1 10.2042 5.03599 1.24595
117 1 11.1879 4.39424 1.96573
113 1 9.85021 4.82796 -0.057436
146 1 10.9696 4.60126 3.38481
124 1 9.39694 4.08489 5.05557
128 1 10.216 3.56459 4.05466
161 1 10.4901 4.76742 8.54447
155 1 9.80781 4.69345 7.31966
122 1 11.7759 3.85295 6.13927
125 1 10.3637 4.2287 6.18143
133 1 11.7573 4.26331 9.00307
163 1 9.80472 5.19225 9.81437
132 1 11.6441 2.89966 9.53396
168 1 11.6155 7.90754 0.336132
143 1 9.27522 6.95366 2.79365
149 1 9.72599 7.78975 5.13789
138 1 10.2918 7.0994 3.87322
157 1 11.3004 6.04828 4.06129
152 1 11.1669 7.34308 6.2683
158 1 11.0814 7.03748 10.3353
164 1 10.3034 7.78756 9.53927
79 1 11.2314 7.1566 11.6565
172 1 9.87895 10.38 4.20303
173 1 10.9637 11.1395 4.66201
176 1 11.9428 10.6292 5.61489
175 1 9.4227 9.27566 5.11207
182 1 11.7234 9.70845 8.04409
186 1 11.7506 10.7246 7.04921
185 1 9.37523 11.7442 7.32008
187 1 10.4144 9.95345 10.4903
190 1 11.1052 11.2148 10.577
105 1 11.9671 12.1873 10.0946
191 1 9.37354 9.50976 11.2006
183 1 11.0105 9.19112 9.2373
ITEM: TIMESTEP
4000
ITEM: NUMBER OF ATOMS
191
ITEM: BOX BOUNDS pp pp pp
-1.6336570123271546e-01 1.2163365701232754e+01
-1.6336570123271546e-01 1.2163365701232754e+01
-1.6336570123271546e-01 1.2163365701232754e+01
ITEM: ATOMS id type x y z
4 1 1.63836 2.80975 1.46585
12 1 0.956059 0.685064 4.81902
118 1 -0.00358415 0.430062 3.71791
31 1 2.67429 0.904806 8.80775
32 1 1.22597 0.797074 8.45908
11 1 0.483786 0.700753 7.30866
17 1 2.30285 2.25672 6.12032
13 1 1.1514 1.37376 6.07757
28 1 0.390963 0.759496 9.69899
29 1 0.248258 2.27563 10.0691
38 1 2.5517 1.77829 10.9447
30 1 1.32846 2.47411 11.1852
45 1 0.884933 5.61289 2.09905
6 1 0.867142 3.79357 0.752991
7 1 0.0903439 4.6298 1.62923
14 1 2.1183 3.67038 6.38973
63 1 0.578516 5.05586 8.53237
22 1 0.626966 3.7798 6.04892
34 1 1.2437 3.81602 11.6954
64 1 1.50063 4.90313 10.7585
66 1 1.50461 4.52593 9.37137
39 1 0.662448 8.27465 0.627032
42 1 1.81135 7.84565 1.37362
41 1 1.74997 7.73605 2.77452
54 1 2.32495 6.88465 5.58151
50 1 2.33879 8.68673 3.72044
52 1 0.830525 6.477 5.50246
40 1 0.930976 6.52196 3.20878
60 1 2.61166 8.11193 4.90507
53 1 0.11291 6.23535 4.29704
108 1 1.60748 8.55254 8.61546
67 1 2.00105 7.21765 8.2148
71 1 0.839738 6.37199 7.98539
59 1 0.227439 6.70635 6.81626
75 1 1.64196 8.68845 10.9756
76 1 2.40262 7.53756 11.5561
77 1 2.01745 6.16357 11.0791
89 1 1.51429 10.5099 0.656364
84 1 1.30281 10.3504 2.11976
83 1 2.35662 10.0767 3.02998
21 1 1.82765 11.6995 4.85905
96 1 1.16765 10.6715 5.54677
109 1 0.589783 9.28211 8.05823
107 1 2.08625 9.16371 9.69699
105 1 -0.0207665 12.154 10.7196
80 1 0.99218 9.4321 12.1519
3 1 4.42331 0.452036 2.09489
1 1 3.76914 1.50411 1.14737
5 1 3.05684 2.61131 1.68633
16 1 4.00417 0.132006 5.09676
18 1 3.58099 1.60979 5.82363
2 1 5.37341 1.05143 3.01046
10 1 4.92059 2.02396 6.40548
24 1 5.55244 2.32454 8.73864
26 1 5.73277 0.834144 8.82107
33 1 3.60903 -0.185997 9.04172
25 1 3.0606 1.99482 9.57293
36 1 3.21466 1.02743 12.0396
37 1 5.70784 2.83609 11.8594
27 1 4.16254 2.91483 9.17109
48 1 4.78607 5.01791 0.388529
44 1 5.2976 5.73237 2.69272
46 1 4.49453 4.79868 1.74623
8 1 3.86926 3.55456 2.28538
58 1 5.88263 4.76126 5.85134
51 1 3.28117 5.82955 5.96038
56 1 4.94966 5.86851 5.84511
70 1 3.54421 5.3153 8.23475
57 1 2.96911 4.80594 6.9197
9 1 5.60381 2.89639 7.31426
78 1 4.78588 3.9814 11.8238
69 1 5.11227 4.89297 10.3233
68 1 4.18916 4.44455 9.19086
47 1 4.94806 8.26001 2.41896
49 1 5.40328 6.95413 2.03585
43 1 2.97662 7.8908 0.507359
92 1 5.73605 8.57639 3.72723
55 1 5.71068 7.13604 5.92453
65 1 3.29918 6.7468 8.60627
62 1 5.53679 7.30857 8.547
61 1 5.6101 8.06324 6.92267
73 1 4.30519 7.7221 8.96197
81 1 5.4607 6.16224 12.1655
102 1 4.42926 9.03153 9.43415
72 1 5.63484 6.04767 10.746
88 1 3.76144 11.5717 1.91034
90 1 3.63466 9.15701 0.757769
82 1 4.80342 9.14932 1.39561
85 1 3.01899 10.8657 0.603291
91 1 5.89449 9.87797 0.909427
97 1 5.47703 10.4187 5.3662
94 1 5.25738 11.7919 5.36469
87 1 3.27123 11.0921 3.15261
20 1 3.1105 11.7124 4.41562
93 1 5.48797 9.74777 6.64986
100 1 5.18 10.6525 7.84367
106 1 4.90375 12.0617 8.27554
101 1 5.50761 9.7814 8.93203
98 1 3.1777 11.1847 10.0927
99 1 3.32112 9.86487 9.69696
103 1 3.39537 11.7694 11.6337
114 1 8.88618 1.51511 0.200737
15 1 6.51897 0.18389 5.16255
19 1 6.23185 1.14114 4.14402
137 1 6.92953 0.445116 9.47267
134 1 6.85973 2.46643 11.1218
130 1 8.32151 2.49429 11.5601
129 1 8.2854 0.166123 9.36172
35 1 6.7146 2.76427 9.5551
147 1 7.54327 5.0855 2.42251
139 1 8.95496 5.62995 2.11945
156 1 6.65741 4.44093 4.69279
150 1 7.99212 4.09468 4.8596
141 1 6.38257 5.07357 3.35991
151 1 8.37254 5.39755 7.46546
166 1 7.40977 4.47192 7.91107
23 1 6.27664 4.11199 7.05341
165 1 8.49396 4.30778 10.1211
136 1 8.85445 3.66836 11.3328
167 1 7.51686 3.88645 9.1712
171 1 7.73024 8.53096 1.7711
140 1 7.28262 7.65426 0.713017
145 1 6.25095 6.82412 0.829762
142 1 7.95069 7.7176 2.9526
144 1 6.97412 7.8724 3.97223
148 1 7.01412 7.11243 5.17421
154 1 8.29435 6.97389 5.71994
153 1 8.32231 6.69122 7.01626
162 1 8.47061 7.84009 7.80146
159 1 8.91574 7.56683 9.06021
74 1 6.42798 6.86022 9.74249
160 1 7.86311 7.51226 9.98843
188 1 8.1044 8.80727 10.8766
169 1 7.01295 9.75634 1.81296
170 1 7.21817 10.3418 3.16808
174 1 8.49782 10.9875 3.28517
123 1 8.74375 12.2043 4.03236
121 1 7.94357 12.0665 5.23045
95 1 6.17392 9.97931 4.09806
180 1 7.83783 10.1183 8.41574
181 1 8.34314 11.424 8.41095
178 1 8.59073 11.1607 6.11911
177 1 8.61708 9.77171 6.09485
184 1 8.19181 9.18348 7.37185
104 1 6.80887 9.83645 9.39228
110 1 7.05595 9.82383 10.7421
86 1 6.19336 10.2055 11.912
115 1 10.8185 1.57972 2.24143
112 1 9.83368 1.22684 1.09163
116 1 12.1729 1.10129 2.38939
111 1 10.1526 1.95133 3.50927
120 1 9.89899 0.649808 4.1479
127 1 10.2631 0.162021 7.77975
131 1 9.66997 1.18334 8.79051
189 1 11.6069 -0.00611334 7.37001
135 1 10.446 2.30146 9.07308
119 1 9.82827 4.82566 1.294
117 1 11.0422 4.66644 1.93713
113 1 9.33642 4.53549 0.085378
146 1 10.7769 4.53686 3.33987
124 1 9.35873 3.76366 4.99647
128 1 10.1376 3.37759 3.88067
157 1 11.0484 5.88043 4.01997
161 1 10.3871 4.88799 8.54056
155 1 9.71426 4.71146 7.32346
133 1 11.6816 4.29492 8.77062
125 1 10.2155 4.18148 6.15054
122 1 11.6298 3.71059 6.26113
163 1 9.54433 5.07851 9.6926
132 1 11.5608 2.96554 9.42871
168 1 11.9564 7.47749 0.318935
143 1 9.11423 6.90221 2.88143
149 1 9.37744 7.5769 4.97394
138 1 9.96204 6.87735 3.91352
175 1 9.44082 9.07641 5.12586
152 1 11.3505 7.41654 6.78483
158 1 10.9866 7.06225 10.391
164 1 10.3596 7.87272 9.22359
79 1 11.1841 6.86074 11.7401
172 1 10.2892 9.88072 4.23381
173 1 11.1529 10.8407 4.69001
179 1 9.62081 10.1842 3.05937
176 1 12.0843 10.6514 5.8151
126 1 11.1052 12.1014 4.19765
182 1 11.7145 9.80545 7.99963
186 1 11.5923 10.93 7.0699
185 1 9.24904 11.7143 7.27614
187 1 10.6135 9.78542 10.3963
190 1 11.3551 11.0556 10.8345
191 1 9.42979 9.34504 11.0157
183 1 10.8797 9.20374 9.12163
ITEM: TIMESTEP
5000
ITEM: NUMBER OF ATOMS
191
ITEM: BOX BOUNDS pp pp pp
-1.0506787493215757e-01 1.2105067874932180e+01
-1.0506787493215757e-01 1.2105067874932180e+01
-1.0506787493215757e-01 1.2105067874932180e+01
ITEM: ATOMS id type x y z
4 1 1.73963 2.64762 1.61852
116 1 -0.0960047 1.33344 2.86411
12 1 1.01158 0.41092 5.20958
118 1 0.0224437 0.743792 4.26148
31 1 2.66291 0.856364 8.9303
32 1 1.25839 0.69123 8.74502
11 1 0.481047 0.923291 7.52957
13 1 1.33329 1.23187 6.37107
17 1 2.57192 2.03856 6.41143
28 1 0.375048 0.854999 9.86375
29 1 0.336877 2.21961 10.2882
38 1 2.72321 2.02408 10.8565
30 1 1.47636 2.66149 11.0395
45 1 1.11911 5.57622 2.35061
6 1 0.97851 3.62486 0.898269
7 1 0.326154 4.65786 1.59974
14 1 2.26509 3.4321 6.58061
63 1 0.647864 4.99211 8.75726
22 1 0.866804 3.81363 6.41882
71 1 0.843519 6.17522 8.00675
34 1 1.29922 3.89697 11.8139
64 1 1.91994 4.95749 11.1053
66 1 1.67944 4.81594 9.76384
39 1 0.286701 8.40689 0.883952
42 1 1.52657 7.98483 1.60393
43 1 2.78503 8.08834 0.947312
54 1 2.39586 6.66415 5.54001
50 1 2.27837 8.56727 3.76382
52 1 0.839121 6.4145 5.57258
40 1 1.02495 6.40464 3.37475
53 1 0.136967 6.34071 4.41246
60 1 2.79885 7.85519 4.96822
41 1 1.65552 7.60997 2.9622
108 1 1.57404 8.28162 8.84446
67 1 2.01755 7.01246 8.46013
109 1 0.536958 9.0577 8.19649
59 1 0.255508 6.62234 6.82712
75 1 1.65066 8.64495 11.2725
76 1 2.48612 7.58673 11.8334
107 1 2.10581 8.90028 10.0515
77 1 2.43138 6.26183 11.4094
89 1 1.19706 10.5598 0.85027
84 1 1.06862 10.1596 2.29716
85 1 2.97947 10.7652 0.669099
83 1 2.07257 9.78914 3.1796
21 1 1.88605 11.444 5.19517
96 1 1.08221 10.3457 5.65056
80 1 0.803841 9.4751 12.1906
3 1 4.27227 0.537405 1.85361
1 1 3.72928 1.42017 0.931027
2 1 5.48593 0.683171 2.52815
5 1 3.12524 2.53921 1.53686
16 1 4.06547 0.047229 5.47517
18 1 3.84062 1.38884 6.10538
26 1 5.87226 0.677574 8.40019
24 1 5.63732 2.21112 8.4962
10 1 4.86818 2.33981 6.15525
27 1 4.24595 2.71167 8.97954
9 1 5.68309 2.80684 7.09342
25 1 3.17145 1.95325 9.58629
36 1 3.1745 1.10527 11.8996
37 1 5.8992 2.6235 11.5203
48 1 5.18763 4.85812 0.175095
44 1 5.47995 5.52984 2.42954
46 1 4.7576 4.77496 1.49707
8 1 3.90496 3.71146 1.79716
58 1 5.86869 4.60043 5.55774
56 1 5.03623 5.73463 5.49959
51 1 3.45671 5.70264 5.83358
70 1 3.58018 5.03766 8.08617
57 1 3.1354 4.57957 6.78701
78 1 5.21938 3.86383 11.3768
69 1 5.06735 4.67459 10.2272
72 1 5.69573 5.97187 10.3788
68 1 4.21572 4.13908 9.04068
47 1 5.20942 8.37655 2.27199
49 1 5.56051 7.10139 1.85226
55 1 5.76083 7.03921 5.66984
65 1 3.35293 6.45908 8.55207
62 1 5.72724 7.43809 8.29875
61 1 5.59027 7.94056 6.843
73 1 4.23483 7.51495 8.88662
81 1 5.69048 6.08989 11.9108
102 1 4.34403 8.84414 9.31526
88 1 3.48817 11.6817 2.20024
90 1 3.49391 9.33077 0.93811
82 1 4.8303 9.46951 1.39956
91 1 5.97303 10.14 0.932386
97 1 5.60315 10.2456 5.2399
94 1 5.31639 11.6883 5.45763
20 1 3.08787 11.4901 4.60687
87 1 3.04403 10.9641 3.34491
93 1 5.45859 9.55734 6.45832
100 1 5.2264 10.4051 7.6579
106 1 4.8867 11.8493 8.21281
101 1 5.51767 9.68153 8.90006
33 1 3.6035 11.8769 9.12132
98 1 3.3074 10.9689 10.1764
103 1 3.27215 11.7168 11.5872
99 1 3.30687 9.59068 9.88973
114 1 9.09189 2.17035 0.266993
15 1 6.43888 0.244995 4.89764
123 1 8.49386 0.422529 3.94108
121 1 7.90392 0.0118056 5.17766
19 1 6.06574 0.953074 3.70806
137 1 7.02239 0.462997 9.27869
134 1 7.01152 2.42745 10.8478
129 1 8.47497 0.277395 9.32861
130 1 8.2314 2.76389 11.5312
35 1 6.78165 2.79886 9.50365
147 1 7.81815 5.06833 2.42908
139 1 8.90649 5.75421 2.0431
156 1 6.71454 4.44098 4.47841
150 1 8.01532 3.91797 5.07134
141 1 6.47429 4.96235 3.22065
151 1 8.4304 5.36859 7.21851
166 1 7.53684 4.367 7.6107
23 1 6.44101 3.98268 6.88273
167 1 7.62198 3.91236 8.93125
165 1 8.69254 4.52427 9.86855
136 1 8.67875 4.14255 11.1179
171 1 7.77282 8.5501 1.54758
140 1 7.38263 7.93084 0.351051
145 1 6.28569 7.11427 0.45811
142 1 8.06082 7.90306 2.69572
144 1 7.01418 7.90036 3.62916
148 1 6.89916 7.33404 4.9681
154 1 8.13746 7.08121 5.58971
92 1 5.75038 8.77319 3.59783
153 1 8.22107 6.72329 6.90628
162 1 8.28375 7.79742 7.84088
159 1 8.63299 7.66711 9.09313
74 1 6.54311 6.95631 9.49314
160 1 7.59917 7.57155 10.0035
188 1 7.96312 8.49947 11.2553
169 1 7.14288 9.91317 1.80644
174 1 8.34255 11.4336 3.15182
95 1 6.24245 10.0162 4.00313
170 1 7.0747 10.6358 3.06285
180 1 7.81236 10.0329 8.4009
181 1 8.65398 11.1809 8.43866
184 1 8.05986 9.07351 7.3802
177 1 8.50251 9.74746 6.12642
178 1 8.42093 11.2829 6.13716
185 1 9.04423 11.7613 7.17928
104 1 6.77697 9.84114 9.39928
110 1 7.03265 9.65906 10.8118
86 1 6.3754 10.2631 11.8741
115 1 10.9054 1.8917 2.37215
112 1 10.2004 1.84164 1.02446
111 1 10.1536 2.29064 3.52304
120 1 9.71439 1.11892 4.266
126 1 10.8881 0.188435 4.56409
127 1 10.0673 0.564271 7.61061
189 1 11.4401 0.0648053 7.43334
131 1 9.54962 1.13355 8.80745
135 1 10.3283 2.16191 9.45227
132 1 11.5065 3.00972 9.71673
105 1 11.4777 0.0383027 10.2673
119 1 9.97785 5.06921 1.2268
117 1 11.1347 4.72899 1.93803
113 1 9.48365 4.69112 -0.0378455
146 1 10.8525 4.71483 3.33637
124 1 9.40866 3.82697 5.05846
128 1 10.1207 3.6672 3.82655
157 1 11.0003 5.98719 4.13124
161 1 10.5272 4.83378 8.467
155 1 9.86723 4.80594 7.11727
133 1 11.688 4.13636 8.92599
125 1 10.3715 4.00659 6.1582
122 1 11.7613 3.53209 6.32936
163 1 9.83385 5.33051 9.57646
168 1 11.5672 7.4446 0.453528
143 1 9.22439 6.98151 2.81818
149 1 9.18292 7.75235 5.07407
138 1 9.94528 6.93759 4.04356
152 1 11.2967 7.20022 7.00244
158 1 10.3434 6.64512 10.2053
164 1 10.0244 7.72892 9.40699
79 1 10.9285 6.89079 11.4558
172 1 10.0781 10.0824 4.27476
173 1 10.976 11.032 4.93715
179 1 9.43659 10.6277 3.11492
175 1 9.43409 9.18056 5.23674
176 1 11.8669 10.534 5.92891
182 1 11.5039 9.81848 8.21311
186 1 11.4967 10.8138 7.30954
187 1 10.2199 9.7769 10.4422
190 1 10.8952 11.0146 10.4866
183 1 10.503 9.08525 9.09861
191 1 9.34822 9.0884 11.2038
ITEM: TIMESTEP
6000
ITEM: NUMBER OF ATOMS
191
ITEM: BOX BOUNDS pp pp pp
-1.0777069836563406e-01 1.2107770698365636e+01
-1.0777069836563406e-01 1.2107770698365636e+01
-1.0777069836563406e-01 1.2107770698365636e+01
ITEM: ATOMS id type x y z
4 1 1.91966 2.88216 1.79167
12 1 1.02594 0.543169 5.03455
118 1 -0.0347271 0.64428 4.06264
13 1 1.23181 1.21076 6.34325
32 1 1.40356 0.730378 8.71217
11 1 0.596526 0.670942 7.4846
17 1 2.46348 2.08735 6.14288
31 1 2.78057 0.695544 8.83137
28 1 0.446229 0.746271 9.85697
29 1 0.303039 2.04988 10.4195
38 1 2.6773 1.76162 10.8127
30 1 1.42153 2.42731 11.1259
45 1 1.08916 5.58848 2.24959
6 1 0.938097 3.5055 1.0871
7 1 0.341295 4.65192 1.61611
14 1 2.26693 3.47758 6.27581