ITEM: TIMESTEP
1000
ITEM: NUMBER OF ATOMS
191
ITEM: BOX BOUNDS pp pp pp
0.0000000000000000e+00 1.2000000000000000e+01
0.0000000000000000e+00 1.2000000000000000e+01
0.0000000000000000e+00 1.2000000000000000e+01
ITEM: ATOMS id type x y z
12 1 1.20509 0.848646 4.8824
1 1 2.45416 2.21262 3.44646
118 1 0.0568909 0.931156 4.21542
31 1 2.7963 1.20012 8.59879
32 1 1.33362 1.11411 8.47168
11 1 0.524598 1.20419 7.34151
17 1 2.71238 2.40746 6.16634
13 1 1.38231 1.67759 6.10224
28 1 0.600435 1.06936 9.68613
29 1 0.380463 2.49177 10.0643
30 1 1.54051 2.88833 10.6729
38 1 2.76966 2.1392 10.5977
4 1 2.18611 3.42645 1.49308
6 1 1.37529 4.1638 0.681185
7 1 0.316389 4.7799 1.23673
5 1 2.72351 3.38718 2.80547
53 1 0.358511 5.83537 4.1516
14 1 2.48962 3.77126 6.47623
22 1 1.04066 4.12647 6.92577
63 1 0.861504 4.89394 8.19573
34 1 1.60511 4.1806 11.3394
64 1 1.84804 5.17285 10.4568
66 1 1.97643 4.87993 9.13738
39 1 0.181589 8.50532 0.712513
43 1 2.65505 8.15867 0.868042
42 1 1.41328 7.99508 1.5577
45 1 0.410238 6.0196 1.6437
40 1 0.607622 6.50916 2.98891
41 1 1.37971 7.70322 2.91852
54 1 2.3679 6.52629 5.21292
50 1 2.14686 8.46843 3.69532
52 1 1.04645 6.21113 5.25484
60 1 2.43505 7.90596 4.88676
59 1 0.319578 6.54721 6.41356
67 1 1.82448 7.31926 8.10585
71 1 0.824954 6.39916 7.65354
108 1 1.50378 8.72625 8.5489
75 1 1.63839 8.73584 10.9
76 1 2.39605 7.75422 11.4558
77 1 2.36185 6.3648 11.1126
89 1 1.68557 10.4378 0.778156
84 1 1.26087 10.293 2.26055
96 1 1.39937 10.5244 5.80047
21 1 1.92503 11.6793 5.0829
83 1 1.97272 9.86486 3.45811
109 1 0.460584 9.13924 7.92927
107 1 1.96788 9.23301 9.68906
80 1 0.964113 9.47731 11.8748
3 1 3.46182 1.23958 3.5408
16 1 4.12741 0.164967 5.50129
2 1 4.94593 1.47411 3.18049
9 1 5.79569 2.82726 7.153
24 1 5.70492 2.43076 8.65892
26 1 5.83625 0.933983 8.58776
10 1 5.33926 2.06308 6.16372
18 1 3.95423 1.52412 6.0336
25 1 3.47206 2.22466 9.36298
36 1 3.1563 1.05003 11.3995
48 1 4.33373 4.65548 0.709691
44 1 5.99016 5.22315 2.44868
46 1 4.83482 4.57961 2.03733
8 1 3.91788 4.06314 2.96916
58 1 5.89245 4.77236 5.62939
56 1 5.05263 5.94244 5.47293
51 1 3.61934 5.79543 5.77172
70 1 3.40603 5.25056 8.37877
57 1 3.29911 4.88631 6.83742
78 1 5.12797 4.29346 11.5245
68 1 4.40579 4.42649 9.42396
69 1 5.059 5.21573 10.3426
27 1 4.47806 3.0505 9.22505
47 1 5.19546 7.94796 2.43487
82 1 4.90455 8.78538 1.39948
92 1 5.0144 8.61295 3.70179
55 1 5.95341 7.18716 5.53858
73 1 4.19161 7.74413 8.55678
62 1 5.53684 7.49362 7.95057
65 1 3.19209 6.8109 8.4114
61 1 5.63671 8.06901 6.60218
72 1 5.55993 6.5066 10.3029
81 1 5.54413 7.76087 11.0694
88 1 3.49987 11.0428 2.1632
85 1 3.16455 10.4098 1.00517
91 1 5.91697 9.71594 1.04399
90 1 3.67653 9.11918 1.0001
94 1 5.51007 11.7138 5.47563
97 1 5.54044 10.2859 5.25334
87 1 3.11333 10.7168 3.43176
20 1 3.18504 11.8843 4.2963
95 1 5.89847 9.73487 4.04418
93 1 5.64775 9.60237 6.45837
100 1 5.39615 10.4731 7.59658
101 1 5.51693 9.71445 8.84227
106 1 4.93343 11.8978 7.96221
33 1 3.59975 11.9983 8.55921
98 1 3.50555 11.1841 9.68144
103 1 3.22428 11.7935 10.9441
99 1 3.27887 9.79207 9.59418
102 1 4.32834 9.07969 9.01661
114 1 8.60925 1.0636 0.341457
15 1 6.28686 1.03729 5.36838
19 1 6.14573 1.31933 3.9212
121 1 7.76238 0.614062 5.91285
128 1 8.88866 2.97665 3.70562
129 1 8.35478 0.18746 9.37563
130 1 8.26103 2.13424 11.4211
137 1 7.02759 0.504277 9.32774
134 1 6.96563 2.54662 10.8961
35 1 6.87822 2.8466 9.43909
147 1 8.12484 3.78741 2.81579
139 1 8.95702 4.71955 2.11283
141 1 6.86754 4.534 3.29409
150 1 8.14886 4.52859 5.47536
156 1 6.87198 4.6036 4.71775
151 1 8.27125 5.07366 6.80782
166 1 7.22697 4.60737 7.64401
23 1 6.11789 4.13615 6.99852
167 1 7.57641 4.01855 8.90824
165 1 8.33637 4.89564 9.7276
37 1 6.09022 3.28999 11.648
49 1 6.32647 6.66491 2.15676
140 1 7.99375 7.68454 0.383597
142 1 8.58072 7.38481 2.5869
145 1 6.96274 6.67636 0.681379
171 1 8.11027 8.45739 1.63405
144 1 7.31434 7.04926 3.2988
148 1 7.18411 7.1601 4.73754
154 1 8.35935 7.1502 5.53352
153 1 8.1698 6.55922 6.73473
162 1 8.58165 7.49694 7.74916
184 1 8.14193 8.93666 7.51019
188 1 7.99517 8.26872 11.0671
74 1 6.48352 6.90777 9.14608
160 1 7.81743 7.2395 9.89896
169 1 7.09657 9.53003 1.87342
174 1 7.97704 10.9841 3.56656
170 1 6.93637 10.1165 3.21665
177 1 8.34338 9.55504 6.12299
178 1 8.10362 11.1346 6.34415
180 1 7.89147 9.70405 8.60484
181 1 8.60636 10.9521 8.71045
185 1 8.91145 11.4014 7.40967
104 1 6.73251 9.58153 9.41521
110 1 6.49943 9.08283 10.8292
86 1 6.07477 10.1283 11.7812
115 1 10.3233 1.23323 2.44296
116 1 11.6482 0.993539 2.82226
112 1 9.70433 1.22206 1.2498
111 1 9.4857 1.66562 3.53701
126 1 10.9251 0.207048 4.75638
120 1 9.76984 1.11383 4.82804
123 1 9.07273 1.35593 5.95414
127 1 9.85358 0.871564 7.35898
189 1 11.3665 0.497339 7.24559
131 1 9.26943 1.27343 8.8753
135 1 9.92736 2.45712 9.72437
136 1 9.31994 2.91918 10.9834
105 1 11.8296 0.0101488 10.1355
119 1 10.0568 4.12402 1.1601
117 1 11.2913 4.10232 1.87838
157 1 11.3328 4.9189 4.17809
124 1 9.18021 3.70881 5.01453
146 1 11.3855 3.97031 3.30822
138 1 10.2186 5.74187 3.89366
161 1 10.2777 4.94223 8.31128
155 1 9.72347 4.77316 7.05922
133 1 11.4486 4.36918 8.8939
122 1 11.7791 3.7662 6.22739
125 1 10.4313 4.01175 6.05778
163 1 9.44619 5.61201 9.18789
113 1 9.86272 3.82653 11.855
132 1 11.2015 3.12199 9.46298
143 1 9.41135 6.11047 2.82495
168 1 11.139 7.60473 0.563201
149 1 9.69535 7.6531 5.41856
152 1 10.827 7.13612 6.19421
159 1 9.168 7.09184 8.9772
158 1 11.2905 7.02504 10.2119
164 1 10.4181 7.84684 9.49228
79 1 11.2299 6.74242 11.5198
172 1 10.0074 10.0659 4.56232
173 1 11.0291 10.7553 5.07982
175 1 9.42791 9.05859 5.30838
179 1 9.28849 10.6904 3.58403
182 1 11.2861 9.8532 8.11419
186 1 11.4828 11.032 7.29613
176 1 11.9937 10.5963 6.03074
187 1 10.2157 9.88624 10.5578
190 1 10.9942 11.1135 10.7664
183 1 10.5117 9.3033 9.2034
191 1 9.03 9.33326 11.045
ITEM: TIMESTEP
2000
ITEM: NUMBER OF ATOMS
191
ITEM: BOX BOUNDS pp pp pp
-1.1203408423024054e-01 1.2112034084230269e+01
-1.1203408423024054e-01 1.2112034084230269e+01
-1.1203408423024054e-01 1.2112034084230269e+01
ITEM: ATOMS id type x y z
4 1 1.93704 2.8761 1.34987
12 1 1.19977 0.654608 4.81715
118 1 0.147001 0.403552 3.87744
31 1 2.75612 1.07563 8.68799
32 1 1.20486 0.742363 8.64005
11 1 0.509425 0.923465 7.15555
17 1 2.54951 2.09137 6.12342
13 1 1.2556 1.39506 6.03847
28 1 0.240636 0.924926 9.65412
38 1 2.62537 2.03259 10.688
30 1 1.43214 2.82451 11.0056
29 1 0.339483 2.37045 10.2011
36 1 2.87782 0.876873 11.6067
7 1 0.413867 4.79214 1.56406
6 1 1.19048 3.84833 0.761024
45 1 0.978701 5.90817 2.00689
14 1 2.27646 3.50187 6.65622
22 1 0.920464 3.84909 7.17307
63 1 0.764471 4.63342 8.37504
34 1 1.48812 4.09376 11.55
64 1 1.80426 5.13292 10.741
66 1 1.90462 4.83032 9.18839
39 1 0.207077 8.58221 1.07162
43 1 2.33773 8.20431 0.651178
42 1 1.36577 8.1341 1.71696
54 1 2.35305 6.67741 5.45231
50 1 2.19744 8.75905 3.74905
52 1 1.02806 6.31666 5.50891
40 1 0.980004 6.53165 3.23288
60 1 2.54784 8.06333 4.97874
53 1 0.355367 6.05794 4.32742
41 1 1.48918 7.76065 2.9744
108 1 1.45549 8.53004 8.52081
67 1 1.75646 7.18284 8.15436
71 1 0.655208 6.3323 7.90038
59 1 -0.177959 6.64687 6.66132
109 1 0.186013 8.99953 8.09816
77 1 2.28426 6.40492 11.3147
76 1 1.92414 7.75027 11.5703
75 1 1.33968 8.92179 11.0398
89 1 1.49615 10.7356 0.74702
84 1 1.22617 10.5939 2.06124
80 1 0.809698 9.74018 -0.0501292
83 1 2.07207 10.084 3.25619
21 1 1.90902 11.5461 5.23178
96 1 1.06488 10.5478 5.68485
107 1 1.87121 9.23761 9.73494
3 1 4.68404 0.489362 2.0154
1 1 3.7615 1.37212 1.69109
2 1 5.98125 0.857655 2.52104
5 1 3.13869 2.52573 2.05308
16 1 4.12482 0.0361084 5.55503
18 1 3.84106 1.47711 5.872
10 1 4.96328 2.12675 6.30117
24 1 5.61205 2.36435 8.66748
9 1 5.67945 2.83963 7.2843
33 1 3.52318 -0.0486603 8.9731
106 1 4.90699 0.00633056 8.26931
26 1 5.85624 0.918564 8.89607
25 1 3.16328 2.18195 9.45314
48 1 4.15256 4.81077 0.620806
44 1 5.54948 5.32606 2.69553
46 1 4.64464 4.54924 1.91659
8 1 3.97005 3.50576 2.58293
56 1 5.12857 5.73423 5.65891
58 1 5.85271 4.5115 5.73513
70 1 3.12114 5.19865 8.5085
57 1 3.13199 4.65628 6.99676
51 1 3.54502 5.67028 6.00879
78 1 4.87383 4.66955 11.6365
68 1 4.30803 4.45951 9.22354
69 1 4.82317 5.26733 10.3417
37 1 5.67607 3.54413 11.6513
27 1 4.336 2.9928 9.16229
47 1 5.04814 7.84909 2.41765
82 1 4.67025 8.755 1.3729
49 1 5.90631 6.63608 2.21281
92 1 5.04788 8.40851 3.74811
55 1 5.79152 7.1153 5.51278
73 1 4.09596 7.72632 8.65843
62 1 5.38994 7.45201 8.09133
61 1 5.69968 8.13697 6.69971
65 1 3.12858 6.71293 8.49422
72 1 5.44065 6.50486 10.1296
81 1 5.45549 7.58345 10.9212
102 1 4.25261 9.00721 9.21802
88 1 3.84837 11.2577 2.15268
85 1 3.15751 10.7567 0.554159
91 1 5.85691 9.61805 1.05304
90 1 3.31174 9.16101 0.826438
97 1 5.62213 10.3316 5.35327
94 1 5.47976 11.7209 5.45444
20 1 3.18562 11.5961 4.73834
87 1 3.36709 10.9113 3.3539
95 1 5.83316 9.57817 4.13043
93 1 5.47604 9.6557 6.60256
100 1 5.37115 10.7792 7.78332
101 1 5.47304 9.8065 8.87281
99 1 3.27699 9.83663 9.86543
98 1 3.28997 11.1727 10.0919
103 1 3.17725 11.7137 11.4598
86 1 5.98432 9.90562 11.9293
114 1 8.69456 1.83763 0.376716
15 1 6.73646 0.190879 5.00517
19 1 6.68596 0.780239 3.61513
121 1 8.16554 -0.0341504 5.60758
123 1 9.01789 1.0741 5.31911
129 1 8.13856 0.355596 9.55583
130 1 8.12491 2.55086 11.4513
137 1 6.73124 0.559975 10.0346
134 1 6.64746 2.76247 11.0976
147 1 7.80924 4.65054 2.35445
141 1 6.66149 4.61932 3.34962
150 1 8.26046 3.71706 4.96451
156 1 6.87612 4.21575 4.66451
151 1 8.47625 5.24623 6.95258
166 1 7.4526 4.51948 7.6897
23 1 6.25311 4.03272 7.06661
165 1 8.68909 4.4179 9.78952
35 1 6.65441 2.99958 9.52228
167 1 7.57386 4.05667 9.06452
171 1 8.03366 8.48318 1.5053
140 1 7.69218 7.63338 0.247304
142 1 8.29936 7.55783 2.66658
145 1 6.55117 6.6028 0.746392
144 1 7.10478 7.08167 3.35042
148 1 7.08704 7.10342 4.79264
154 1 8.34858 6.96147 5.44697
153 1 8.43028 6.63985 6.73176
162 1 8.63496 7.52916 7.75063
184 1 8.4964 9.04151 7.64491
188 1 7.7685 8.25335 11.1348
160 1 7.66638 7.2273 9.80878
74 1 6.32189 6.78532 9.10097
110 1 6.4916 9.00611 10.8011
169 1 7.02637 9.53959 1.80415
174 1 7.99485 10.8076 3.586
170 1 6.93707 9.968 3.21845
177 1 8.93113 9.63662 6.36019
178 1 8.75838 11.0835 6.32023
180 1 7.82226 9.93521 8.69446
181 1 8.34456 11.2793 8.82413
104 1 6.67091 9.68977 9.53067
191 1 8.96059 9.40312 10.9288
115 1 10.729 1.35286 2.17954
112 1 9.73605 1.31764 1.02585
116 1 12.082 0.885192 2.54883
111 1 10.1574 2.07508 3.3507
120 1 10.1009 1.06818 4.43746
126 1 11.1742 0.150123 4.53017
127 1 10.1329 0.640814 7.80036
189 1 11.4308 0.222216 7.4526
131 1 9.36427 1.37708 9.00445
135 1 10.0515 2.45204 9.68143
105 1 11.624 -0.0820672 10.1908
119 1 10.0125 4.65586 1.04371
117 1 11.2853 4.56028 1.75842
139 1 9.15077 5.26701 1.97701
157 1 11.3058 5.70091 3.86438
124 1 9.77392 3.71889 4.98908
128 1 10.5269 3.28528 3.8785
146 1 11.1075 4.35697 3.22143
161 1 10.424 5.13773 8.48925
155 1 9.92747 4.92185 7.07435
122 1 11.9967 3.79211 6.2791
125 1 10.6418 4.05544 6.18523
133 1 11.5359 4.38312 9.00508
163 1 9.39203 5.53895 9.21117
136 1 9.20494 3.31802 10.6947
113 1 9.74666 4.2819 11.988
132 1 11.3361 3.03975 9.59784
143 1 9.22714 6.48046 2.81628
168 1 11.2023 7.95448 0.721516
149 1 9.75691 7.54314 5.07125
138 1 10.1282 6.58182 3.91349
152 1 11.0162 7.20377 6.13602
158 1 11.1224 7.44361 10.4018
164 1 10.3326 7.7958 9.34686
79 1 10.7553 7.44209 11.7227
159 1 9.08647 7.07752 9.12251
172 1 10.3137 10.0782 4.35653
173 1 11.1702 10.9512 4.89848
179 1 9.34563 10.637 3.62682
176 1 11.9376 10.6243 5.95957
175 1 9.63518 9.09915 5.2266
182 1 11.3608 9.95715 8.23648
186 1 11.4403 11.0124 7.31205
185 1 9.23312 11.6233 7.67818
183 1 10.4733 9.25617 9.01205
187 1 10.0836 9.90166 10.2463
190 1 10.7501 11.1521 10.4432
ITEM: TIMESTEP
3000
ITEM: NUMBER OF ATOMS
191
ITEM: BOX BOUNDS pp pp pp
-2.2428566868688776e-01 1.2224285668686935e+01
-2.2428566868688776e-01 1.2224285668686935e+01
-2.2428566868688776e-01 1.2224285668686935e+01
ITEM: ATOMS id type x y z
116 1 -0.217996 0.886753 2.65082
12 1 1.12703 0.289918 5.12971
118 1 0.0133784 0.600195 4.15426
31 1 2.70355 0.628451 8.96754
32 1 1.3155 0.59926 8.77164
11 1 0.619107 0.375829 7.56936
13 1 1.3088 0.893006 6.42677
17 1 2.40935 1.86834 6.26189
28 1 0.21939 0.825053 9.90638
38 1 2.38447 1.70387 10.8663
30 1 1.22827 2.47188 11.1782
29 1 -0.0221684 2.26659 10.3711
7 1 0.176119 4.85027 1.10579
6 1 0.976597 3.82455 0.622712
45 1 1.0278 5.58014 1.95995
4 1 1.93875 3.16225 1.36295
14 1 2.07922 3.23608 6.51584
63 1 0.127793 5.22079 8.79574
22 1 0.674514 3.56337 6.31371
70 1 2.85055 5.07395 8.51628
34 1 1.26115 3.71784 11.6959
64 1 1.78244 4.86521 10.8456
66 1 1.37667 4.85331 9.39361
39 1 0.372937 8.56896 0.831291
42 1 1.52579 8.04128 1.5351
43 1 2.64645 7.99324 0.688395
41 1 1.62801 7.78821 2.86902
54 1 2.2381 6.69238 5.64012
50 1 2.30464 8.62894 3.76455
52 1 0.824155 6.47899 5.63995
53 1 0.350767 6.30133 4.25461
40 1 1.10534 6.41039 2.9914
60 1 2.51558 8.06444 5.02548
108 1 1.26285 8.56116 8.82924
67 1 1.50404 7.2128 8.52995
71 1 0.390144 6.50128 7.92977
59 1 -0.0838745 6.79896 6.60833
109 1 0.213277 9.01485 8.19502
75 1 1.63497 8.70599 11.2592
76 1 2.26225 7.46126 11.7558
77 1 2.04424 6.10351 11.4741
107 1 1.94405 9.09209 9.94556
89 1 1.52836 10.5255 0.581498
84 1 1.26929 10.4053 2.06973
80 1 0.96662 9.38705 -0.169011
96 1 1.01132 10.5491 5.48991
21 1 1.92064 11.473 4.89947
83 1 2.25589 9.96158 3.09381
3 1 4.56516 0.3077 1.73354
1 1 3.75727 1.45699 1.76999
5 1 3.25384 2.83682 1.71675
16 1 4.15106 -0.0443313 5.26075
10 1 4.863 1.99099 6.39945
24 1 5.56983 2.22397 8.76241
26 1 5.74836 0.742017 8.73829
9 1 5.75648 2.66606 7.15576
18 1 3.78424 1.24363 6.05895
25 1 3.12275 1.77809 9.65913
27 1 4.11364 2.71889 9.19472
36 1 2.90954 0.604713 11.7368
37 1 5.4818 2.77713 11.6534
48 1 4.9688 5.24844 0.17534
44 1 5.68519 5.6218 2.59906
46 1 5.02657 4.86323 1.50927
8 1 4.10298 3.91267 1.88935
58 1 5.95234 4.72073 5.6482
56 1 4.87153 5.98487 5.74017
51 1 3.38571 5.92037 6.09764
57 1 2.96695 4.47206 6.84727
78 1 4.92444 4.08502 11.5491
68 1 3.91348 4.17033 9.31943
69 1 4.85841 4.65743 10.1832
47 1 4.897 8.12931 2.37568
82 1 4.76532 8.85323 1.01935
49 1 5.78984 7.04136 2.68374
55 1 5.83114 7.25247 5.75174
92 1 4.98406 8.99569 3.52666
73 1 4.13577 7.61423 8.73396
62 1 5.54217 7.27814 8.3874
61 1 5.60338 8.05102 6.85941
65 1 2.9944 6.75277 8.7753
72 1 5.48326 6.1854 10.4059
102 1 4.18803 8.94194 9.26768
81 1 5.73327 6.19818 11.9057
88 1 3.75045 11.4858 1.80177
91 1 5.85764 9.57566 0.707452
85 1 2.93049 10.7838 0.381778
90 1 3.56974 9.26798 0.499677
97 1 5.85003 10.3713 5.40322
94 1 5.64959 11.7458 5.24878
20 1 3.16728 11.6677 4.42754
87 1 3.33739 11.0321 3.14796
93 1 5.62937 9.61961 6.60275
100 1 5.31723 10.6358 7.76994
106 1 4.83155 12.1154 8.44987
101 1 5.31387 9.65057 8.85318
33 1 3.59698 12.1062 9.09417
98 1 3.45443 11.1306 10.2416
99 1 3.07975 9.75314 9.67604
103 1 3.14486 11.5917 11.5499
114 1 9.00425 1.81978 0.357407
2 1 6.00179 0.461132 2.2391
15 1 6.79494 0.070823 4.73972
19 1 6.60328 0.73429 3.4035
123 1 8.98769 0.75963 5.19826
121 1 8.00346 -0.158744 5.52238
134 1 6.74137 2.49709 11.0301
137 1 7.04607 0.41089 9.36941
129 1 8.39135 0.221324 9.3194
130 1 8.12165 2.7612 11.8492
35 1 6.78055 2.87626 9.57923
147 1 7.95198 5.08128 2.20308
139 1 9.12972 5.76381 1.86648
141 1 6.87346 5.06889 3.14834
150 1 8.29187 4.15555 4.9579
156 1 6.88657 4.54726 4.51118
151 1 8.36729 5.35842 7.23199
166 1 7.3137 4.66928 7.87068
23 1 6.17232 4.05216 7.00241
165 1 8.36735 4.71989 10.0943
136 1 8.5494 4.14263 11.4865
167 1 7.44631 4.05149 9.19432
171 1 7.84068 8.62429 1.41659
140 1 7.94243 7.96145 0.058248
145 1 6.91714 6.84076 0.00485571
142 1 8.13263 7.78163 2.63953
144 1 7.03722 7.41244 3.36729
148 1 6.96024 7.29738 4.88884
154 1 8.29612 7.11141 5.57476
153 1 8.21013 6.74676 6.87212
162 1 8.51785 7.74606 7.81826
159 1 8.96925 7.16244 9.07881
188 1 8.33898 8.39203 11.1465
160 1 7.69786 7.5598 10.2247
74 1 6.20883 7.05276 9.58688
169 1 6.84944 9.75408 1.67666
170 1 6.83048 10.3021 3.09116
174 1 8.02023 10.8275 3.5448
95 1 6.03669 9.65836 4.08286
177 1 8.65116 9.74846 6.19105
178 1 8.66339 11.1977 6.22813
180 1 7.84857 9.8933 8.67956
181 1 8.5285 11.2148 8.68444
184 1 8.28322 9.12796 7.5667
104 1 6.60625 9.95541 9.46551
110 1 6.63805 10.3051 10.9337
191 1 9.00728 9.58089 10.9592
86 1 6.03652 10.3306 12.0649
115 1 10.8324 1.52776 2.35038
112 1 10.2846 1.68697 1.09632
111 1 10.4235 2.05904 3.61511
120 1 10.1755 0.842714 4.41801
126 1 11.2697 0.0209137 4.73149
127 1 10.3911 0.0379584 7.87282
131 1 9.66609 0.96957 8.85672
135 1 10.249 2.14545 9.3048
119 1 9.98126 4.97704 1.13817
117 1 11.2577 4.67043 1.63615
113 1 9.44961 4.58719 -0.0285964
146 1 11.1504 4.59953 3.14582
124 1 9.65542 3.81378 5.0687
128 1 10.3694 3.46869 3.9089
157 1 11.4263 5.89904 3.89583
161 1 10.2469 4.92991 8.53177
155 1 9.70952 4.87942 7.26027
122 1 11.7718 3.84098 6.37873
125 1 10.4071 3.97099 6.34593
133 1 11.547 4.38039 9.11945
163 1 9.34357 5.63717 9.43357
132 1 11.4128 2.97595 9.50234
168 1 11.6094 7.96084 0.514883
143 1 9.3004 6.93828 2.56085
149 1 9.85583 7.54755 5.04939
138 1 10.274 6.8382 3.77762
152 1 10.9763 7.11997 5.99491
158 1 10.8373 7.35707 10.6661
164 1 10.2209 7.9316 9.58284
79 1 10.9028 7.21829 12.0553
172 1 10.3005 10.1643 4.23169
173 1 11.2605 11.0511 4.84565
179 1 9.41414 10.8622 3.46202
176 1 12.0962 10.5286 5.8761
175 1 9.61698 9.16682 5.17921
182 1 11.505 9.74817 8.06737
186 1 11.7183 10.8405 7.18787
185 1 9.24613 11.589 7.47094
189 1 11.7061 12.1684 7.64867
187 1 10.0696 10.0708 10.2261
190 1 10.7578 11.2985 10.5634
105 1 11.7961 12.2003 10.3463
183 1 10.6726 9.24362 9.1905
ITEM: TIMESTEP
4000
ITEM: NUMBER OF ATOMS
191
ITEM: BOX BOUNDS pp pp pp
-1.7622377810020870e-01 1.2176223778100271e+01
-1.7622377810020870e-01 1.2176223778100271e+01
-1.7622377810020870e-01 1.2176223778100271e+01
ITEM: ATOMS id type x y z
116 1 0.207044 1.17959 2.42842
12 1 1.28962 0.659209 4.68393
118 1 0.36766 0.561743 3.7667
13 1 1.21923 1.38982 5.95798
31 1 2.52163 0.963629 8.78441
32 1 1.12942 0.93807 8.51959
11 1 0.560931 0.674203 7.27204
17 1 2.44035 2.24299 6.10882
28 1 0.227403 0.847994 9.74451
38 1 2.47237 1.89657 10.9821
30 1 1.1885 2.60355 11.038
29 1 0.0430857 2.06844 10.3546
7 1 0.201815 4.74394 1.45119
6 1 1.0651 3.99738 0.730364
45 1 0.85937 5.79981 2.25195
4 1 1.80655 2.99751 1.51639
14 1 2.19694 3.61593 6.54155
63 1 0.472958 5.04348 8.79093
22 1 0.717848 3.73298 6.5376
34 1 1.19648 3.87275 11.6829
64 1 1.83933 5.04389 11.0352
66 1 1.75381 4.88692 9.55098
39 1 0.438685 8.56298 0.81865
42 1 1.60795 8.10488 1.51471
41 1 1.64713 7.79558 2.81246
43 1 2.85278 8.0983 0.619395
54 1 2.40779 6.83313 5.5466
50 1 2.34772 8.70819 3.59864
52 1 0.867849 6.69956 5.59458
53 1 0.200094 6.50955 4.42759
60 1 2.75821 8.08735 4.85581
40 1 0.923552 6.78135 3.27767
108 1 1.27807 8.39434 8.80499
67 1 1.75094 7.09328 8.3138
71 1 0.687456 6.23873 7.8777
59 1 0.113694 6.51511 6.6878
109 1 0.101603 9.01403 8.37568
75 1 1.57225 8.54776 11.1518
76 1 2.34534 7.57282 11.7565
77 1 2.38633 6.2652 11.3392
107 1 1.85677 9.06077 9.90409
89 1 1.64646 10.4079 0.63363
84 1 1.33733 10.4394 1.95488
80 1 0.907313 9.43633 -0.127208
96 1 1.28718 10.9402 5.88406
21 1 1.90813 11.8148 4.89742
83 1 2.20561 10.053 3.06653
176 1 -0.065265 10.5063 6.07312
3 1 4.45157 0.400828 1.65494
1 1 3.69027 1.36301 0.847962
2 1 5.3958 0.787126 2.58536
5 1 3.21531 2.61059 1.57181
16 1 4.1624 0.0133823 5.21373
10 1 4.94041 1.98669 6.49591
24 1 5.49686 2.41581 8.94325
26 1 5.59926 0.902434 9.00452
9 1 5.59575 2.82596 7.42288
33 1 3.36012 -0.164302 8.8351
18 1 3.79114 1.34135 6.05002
25 1 3.03506 1.8912 9.75331
36 1 3.01906 0.842591 11.9704
27 1 4.09527 2.82358 9.39793
48 1 4.92466 5.38986 0.286767
44 1 5.69553 5.53441 2.59089
46 1 4.81865 4.9652 1.6651
8 1 4.16735 3.68743 1.92255
58 1 5.92736 4.71294 5.77215
56 1 4.93739 5.79779 5.8701
70 1 2.95982 5.05612 8.69587
57 1 2.95216 4.69704 7.02371
51 1 3.37073 5.7684 6.18724
78 1 4.72888 4.3857 11.6884
69 1 4.6609 5.02106 10.4442
68 1 4.02617 4.32466 9.37925
37 1 5.43 3.12658 11.7177
47 1 5.01428 8.1261 2.18305
82 1 4.97243 9.06942 0.914159
49 1 5.62437 6.95823 2.71567
55 1 5.70949 7.07161 5.77399
92 1 4.90671 9.02577 3.36507
65 1 3.24882 6.71968 8.44845
62 1 5.58161 7.46711 8.60367
61 1 5.40054 7.97098 6.89967
73 1 4.22501 7.72839 9.02722
81 1 5.755 6.29876 11.9177
102 1 4.30723 9.01841 9.54543
72 1 5.63399 6.02583 10.5267
88 1 3.81482 11.5828 1.82012
85 1 3.18699 10.6921 0.334364
90 1 3.72047 9.22994 0.485006
20 1 3.194 11.6829 4.38733
94 1 5.44234 11.6433 5.45209
97 1 5.56907 10.3447 5.33488
87 1 3.24092 11.1228 3.10974
95 1 5.912 9.86168 3.98951
93 1 5.32516 9.50939 6.65101
100 1 5.1222 10.6432 7.87852
106 1 4.72408 12.1326 8.32178
98 1 3.19823 11.299 9.99601
99 1 3.08674 9.89817 9.81384
103 1 3.186 11.9673 11.4432
101 1 5.41656 9.91149 9.24373
114 1 8.83645 1.84204 0.354563
123 1 8.91108 0.548889 4.62506
19 1 6.19217 0.729735 3.66586
15 1 6.51886 0.00973584 4.86529
129 1 8.30993 0.245306 8.86314
134 1 6.72066 2.84488 11.1596
137 1 7.01093 0.564705 9.30448
130 1 8.10994 2.68879 11.78
147 1 7.81513 4.41448 2.43901
139 1 8.90039 5.33338 2.18593
141 1 6.72472 4.77362 3.26281
150 1 8.08141 3.73613 5.03953
156 1 6.92202 4.49442 4.63558
151 1 8.36987 5.17061 7.23825
166 1 7.29955 4.48714 7.8764
23 1 6.31934 4.05909 6.98159
165 1 8.50589 4.56022 10.1055
136 1 8.81135 3.88966 11.3608
167 1 7.60872 3.81233 9.19342
35 1 6.69238 2.93712 9.69452
171 1 8.00161 8.4306 1.61194
140 1 7.90325 7.7442 0.256953
145 1 6.93786 6.69736 0.343748
142 1 8.12309 7.51276 2.72447
144 1 6.81713 7.23458 3.51825
148 1 6.80702 7.22869 4.91407
154 1 8.14716 7.15551 5.48974
153 1 8.26869 6.51495 6.8117
162 1 8.38612 7.54579 7.79201
184 1 8.30687 9.02384 7.50991
188 1 8.31749 8.33064 11.3938
160 1 7.71138 7.54681 10.098
74 1 6.42155 7.02664 9.71932
159 1 8.86425 7.10605 9.12723
169 1 7.13668 9.51459 1.71497
91 1 6.08872 9.82841 0.722403
121 1 7.80632 12.1628 5.22862
174 1 8.41163 10.6861 3.37899
170 1 6.99395 10.158 3.16857
178 1 8.59117 11.1634 5.95736
177 1 8.76443 9.67338 6.01593
181 1 8.4585 11.3336 8.25269
180 1 7.8432 10.1088 8.49067
104 1 6.78146 10.0509 9.48743
110 1 7.20779 10.3543 10.7821
86 1 6.52113 10.5471 12.0239
191 1 8.68831 9.67653 11.0221
115 1 11.083 1.60222 2.12357
112 1 10.0872 1.6669 0.885861
111 1 10.5021 1.92882 3.38612
120 1 10.3242 0.838307 4.32203
126 1 11.4165 -0.169436 4.1558
127 1 10.2815 0.388022 7.51644
131 1 9.56668 0.977463 8.66228
189 1 11.6953 -0.0369411 7.38101
135 1 10.1567 2.07263 9.33457
132 1 11.3416 2.80067 9.71003
119 1 9.94154 4.83006 1.31633
117 1 11.1745 4.5615 1.87767
113 1 9.58332 4.70348 0.0112686
146 1 11.1186 4.55618 3.35188
124 1 9.44249 3.66252 5.14308
128 1 10.2595 3.33846 3.87268
157 1 11.3056 5.97222 4.05629
161 1 10.3185 4.87307 8.73934
155 1 9.74744 4.59939 7.38278
122 1 11.7663 3.57755 6.18789
125 1 10.3222 3.88099 6.37882
163 1 9.26253 5.51039 9.40714
133 1 11.5525 4.32441 9.13351
168 1 11.6212 7.83294 0.528267
143 1 9.2035 6.56771 2.84791
149 1 9.56114 7.52492 5.08419
138 1 10.091 6.71552 3.89047
175 1 9.66302 8.91745 5.30568
152 1 11.1289 6.71098 6.76028
158 1 10.8745 7.1498 10.4555
164 1 10.0906 7.74471 9.45932
79 1 11.2064 7.26731 11.6962
172 1 10.4594 9.66819 4.26501
173 1 11.4674 10.7722 4.85927
179 1 9.79652 10.2728 3.23614
182 1 11.2771 9.69083 8.17553
186 1 11.5021 10.7925 7.26826
185 1 9.30629 11.7701 7.04049
187 1 9.75248 10.0933 10.2621
190 1 10.7255 11.2549 10.2223
183 1 10.275 9.17135 9.24337
105 1 11.7152 12.1144 10.1483
ITEM: TIMESTEP
5000
ITEM: NUMBER OF ATOMS
191
ITEM: BOX BOUNDS pp pp pp
-8.2662070633338636e-02 1.2082662070633422e+01
-8.2662070633338636e-02 1.2082662070633422e+01
-8.2662070633338636e-02 1.2082662070633422e+01
ITEM: ATOMS id type x y z
116 1 0.257847 1.32683 2.68143
12 1 1.16363 0.508308 5.0049
118 1 0.115862 0.660447 4.10614
31 1 2.61075 0.775586 8.94743
32 1 1.26813 0.472274 8.65424
11 1 0.480469 0.786003 7.39023
17 1 2.54627 1.99362 6.39217
13 1 1.32085 1.22945 6.18516
28 1 0.386803 0.670508 9.8604
29 1 0.286775 2.08518 10.2692
30 1 1.26486 2.69658 10.9899
38 1 2.51949 1.89945 11.0261
7 1 0.410562 4.70565 1.67853
6 1 1.10876 3.86437 0.766982
45 1 1.24918 5.506 2.4152
4 1 1.92502 2.95026 1.31088
14 1 2.3634 3.50072 6.61178
63 1 0.532744 5.05234 8.78292
22 1 0.86252 3.80808 6.36233
34 1 1.26718 3.96995 11.5965
64 1 1.72686 4.97225 10.8361
66 1 1.7672 4.82364 9.44241
39 1 0.349968 8.44921 1.14182
42 1 1.53741 7.98088 1.78256
43 1 2.63401 7.89241 0.822986
54 1 2.49318 6.59889 5.7061
50 1 2.30842 8.60238 4.04699
52 1 1.06547 6.39143 5.82113
53 1 0.303759 6.1917 4.56804
40 1 1.3137 6.44608 3.45211
60 1 2.75136 7.87656 5.24035
41 1 1.75296 7.66233 3.09115
108 1 1.55763 8.57818 8.90822
67 1 1.81925 7.2376 8.46236
71 1 0.679615 6.4194 8.23663
59 1 0.11038 6.63649 6.90416
75 1 1.42811 8.71188 11.199
76 1 2.23487 7.54947 11.7035
77 1 2.38634 6.32632 11.101
89 1 1.47152 10.436 0.780875
84 1 1.10443 10.4204 2.2728
80 1 0.814227 9.3488 0.126828
83 1 2.01403 9.99566 3.31457
21 1 1.88929 11.5744 5.07305
96 1 1.16598 10.4206 5.51159
109 1 0.542084 9.32627 8.23155
107 1 1.95839 9.1726 10.0478
3 1 4.44129 0.455569 1.82878
1 1 3.72765 1.37761 0.969717
2 1 5.57743 0.820557 2.50719
5 1 3.23777 2.55498 1.50512
16 1 4.09526 0.195662 5.32871
18 1 3.70158 1.48281 5.80642
26 1 5.66269 0.792729 8.58124
24 1 5.43501 2.23403 8.43706
10 1 4.86997 2.22658 6.10669
9 1 5.66082 2.7631 7.1138
25 1 3.06701 1.99522 9.48889
36 1 3.16769 0.84818 11.9077
37 1 5.93492 2.67927 11.6893
27 1 4.16682 2.7451 9.09507
48 1 5.44789 4.84944 0.224983
44 1 5.52799 5.41789 2.56131
46 1 5.06923 4.55148 1.55182
8 1 4.09747 3.64537 1.8402
58 1 6.00036 4.66487 5.63455
56 1 5.12523 5.85489 5.81304
70 1 3.02242 5.11816 8.70936
57 1 3.14855 4.61263 7.12419
51 1 3.59638 5.71087 6.14898
78 1 5.19512 3.91722 11.3604
69 1 4.98428 4.83595 10.1895
68 1 4.07668 4.33736 9.19115
72 1 5.7924 6.05805 10.4142
81 1 6.11198 5.90225 11.7596
47 1 4.9741 8.03916 2.44849
82 1 4.75038 8.68875 1.21528
49 1 5.7334 6.89904 2.73067
92 1 5.01513 8.97109 3.58257
55 1 5.80757 7.14033 5.80396
65 1 3.10783 6.76691 8.63093
62 1 5.64466 7.36674 8.30587
61 1 5.6776 8.04823 6.87191
73 1 4.17924 7.60978 8.8312
102 1 4.19924 9.00903 9.35796
88 1 3.5985 11.45 2.08905
85 1 3.12515 10.7185 0.773182
90 1 3.55206 8.98529 0.860823
95 1 6.06713 9.84875 4.00495
94 1 5.40486 11.8165 5.37741
97 1 5.65768 10.3924 5.39069
87 1 3.18806 10.9719 3.35924
20 1 3.1962 11.5942 4.59497
93 1 5.48036 9.61978 6.61106
100 1 5.04245 10.5349 7.77751
106 1 4.69802 11.8594 8.45314
101 1 5.43107 9.71352 8.99669
98 1 3.39148 11.032 10.4448
99 1 3.18727 9.7374 9.8794
103 1 3.40696 11.5773 11.7448
33 1 3.51776 11.9783 9.30079
15 1 6.46722 0.471716 4.87965
19 1 6.3106 0.918203 3.58479
123 1 8.80478 0.862021 4.67862
121 1 7.76852 0.0415803 5.16532
129 1 8.29033 0.379557 8.8602
134 1 7.05415 2.54318 10.8259
137 1 6.94228 0.539811 9.13367
35 1 6.67521 2.73496 9.43436
130 1 8.32528 2.88594 11.4701
147 1 7.74195 4.79834 2.41419
139 1 8.96004 5.44013 2.14304
141 1 6.65685 4.85132 3.25945
150 1 8.06183 3.77836 4.8106
156 1 6.84145 4.50747 4.55103
151 1 8.47329 5.24915 7.25209
166 1 7.37695 4.52909 7.72527
23 1 6.27729 3.98371 6.84918
165 1 8.34548 4.8798 10.0716
136 1 8.70464 4.22767 11.3024
167 1 7.50009 3.99114 9.20273
171 1 7.76685 8.32478 1.53967
140 1 7.89175 7.77302 0.20563
145 1 7.13175 6.6223 0.330255
142 1 8.10102 7.56946 2.78928
144 1 6.89812 7.24174 3.46536
148 1 6.89034 7.23988 4.87068
154 1 8.14495 6.9892 5.4975
153 1 8.24058 6.5661 6.81328
162 1 8.47538 7.61765 7.67874
184 1 8.13705 9.0577 7.45781
188 1 8.2563 8.23895 11.1392
160 1 7.85314 7.49053 9.91133
74 1 6.45694 7.01032 9.45355
159 1 9.05616 7.19469 8.97087
169 1 6.92397 9.57211 1.71564
91 1 5.87892 9.53329 0.759888
170 1 7.02443 10.3046 2.95605
174 1 8.10239 11.1329 2.9402
178 1 8.20802 11.0707 5.89401
180 1 7.75395 10.0549 8.32712
181 1 8.538 11.2807 8.23043
185 1 9.02115 11.7546 6.94126
177 1 8.31845 9.61572 6.00392
104 1 6.76587 9.93974 9.26016
110 1 7.08155 10.2728 10.6549
191 1 8.45668 9.71085 10.9333
86 1 6.0917 10.3867 11.7517
115 1 11.1112 1.70891 2.17612
112 1 10.4782 1.89516 0.902488
114 1 9.33273 2.19441 0.0268687
111 1 10.3821 2.13172 3.31499
120 1 9.98322 1.10334 4.07531
126 1 10.9753 0.106249 4.32674
127 1 9.89229 0.619523 7.373
131 1 9.45117 1.27555 8.6381
189 1 11.3178 0.242049 7.27166
135 1 10.1204 2.24324 9.35608
119 1 10.0306 4.98404 1.22533
117 1 11.1426 4.65607 2.00461
113 1 9.66878 4.8192 -0.00539915
146 1 10.9995 4.70132 3.45405
124 1 9.50399 3.6015 4.99798
128 1 10.3564 3.34772 3.88134
157 1 11.0668 5.9077 4.1338
161 1 10.2944 4.92373 8.6555
155 1 9.81775 4.68316 7.38401
125 1 10.303 3.87931 6.22121
133 1 11.5833 4.25788 9.10226
122 1 11.7276 3.63852 6.16194
163 1 9.42415 5.5994 9.46295
132 1 11.4022 2.73393 9.5182
168 1 11.4442 7.58271 0.76464
143 1 9.21034 6.78769 2.86594
149 1 9.40227 7.69905 4.98466
138 1 10.0863 6.87254 4.0001
152 1 11.0329 7.15857 7.03771
158 1 11.3167 7.46457 10.3283
164 1 10.3876 7.9726 9.33928
79 1 11.1776 7.1394 11.6691
172 1 10.0289 10.0775 4.34937
173 1 10.9764 10.9466 4.87104
179 1 9.2052 10.6341 3.35237
176 1 11.8791 10.4518 5.8568
175 1 9.45025 9.08618 5.16259
182 1 11.3576 9.83222 8.12686
186 1 11.4315 10.8753 7.16349
187 1 9.62131 10.1699 10.1947
190 1 10.4608 11.2746 10.7435
183 1 10.3051 9.46063 9.10084
105 1 11.4942 12.123 10.3419
ITEM: TIMESTEP
6000
ITEM: NUMBER OF ATOMS
191
ITEM: BOX BOUNDS pp pp pp
-9.6846399897792604e-02 1.2096846399897878e+01
-9.6846399897792604e-02 1.2096846399897878e+01
-9.6846399897792604e-02 1.2096846399897878e+01
ITEM: ATOMS id type x y z
12 1 1.03302 0.605009 4.93221
118 1 0.02922 0.906658 4.00875
31 1 2.70187 0.79542 8.73171
32 1 1.29819 0.550511 8.55499
11 1 0.592066 0.649942 7.336
17 1 2.53178 2.07048 6.13939
13 1 1.19231 1.25652 6.15988
28 1 0.334523 0.777698 9.80186
29 1 0.316436 2.20989 10.1805
30 1 1.41359 2.50568 11.0333
38 1 2.67358 1.85116 10.8372
7 1 0.322846 4.5814 1.59444
6 1 1.1926 3.76527 0.903746
45 1 1.25865 5.18697 2.53191
4 1 2.06093 2.96348 1.67703
14 1 2.2873 3.52564 6.47935