ITEM: TIMESTEP
1000
ITEM: NUMBER OF ATOMS
191
ITEM: BOX BOUNDS pp pp pp
0.0000000000000000e+00 1.2000000000000000e+01
0.0000000000000000e+00 1.2000000000000000e+01
0.0000000000000000e+00 1.2000000000000000e+01
ITEM: ATOMS id type x y z
12 1 1.20509 0.848646 4.8824
1 1 2.45416 2.21262 3.44646
118 1 0.0568909 0.931156 4.21542
31 1 2.7963 1.20012 8.59879
32 1 1.33362 1.11411 8.47168
11 1 0.524598 1.20419 7.34151
17 1 2.71238 2.40746 6.16634
13 1 1.38231 1.67759 6.10224
28 1 0.600435 1.06936 9.68613
29 1 0.380463 2.49177 10.0643
30 1 1.54051 2.88833 10.6729
38 1 2.76966 2.1392 10.5977
4 1 2.18611 3.42645 1.49308
6 1 1.37529 4.1638 0.681185
7 1 0.316389 4.7799 1.23673
5 1 2.72351 3.38718 2.80547
53 1 0.358511 5.83537 4.1516
14 1 2.48962 3.77126 6.47623
22 1 1.04066 4.12647 6.92577
63 1 0.861504 4.89394 8.19573
34 1 1.60511 4.1806 11.3394
64 1 1.84804 5.17285 10.4568
66 1 1.97643 4.87993 9.13738
39 1 0.181589 8.50532 0.712513
43 1 2.65505 8.15867 0.868042
42 1 1.41328 7.99508 1.5577
45 1 0.410238 6.0196 1.6437
40 1 0.607622 6.50916 2.98891
41 1 1.37971 7.70322 2.91852
54 1 2.3679 6.52629 5.21292
50 1 2.14686 8.46843 3.69532
52 1 1.04645 6.21113 5.25484
60 1 2.43505 7.90596 4.88676
59 1 0.319578 6.54721 6.41356
67 1 1.82448 7.31926 8.10585
71 1 0.824954 6.39916 7.65354
108 1 1.50378 8.72625 8.5489
75 1 1.63839 8.73584 10.9
76 1 2.39605 7.75422 11.4558
77 1 2.36185 6.3648 11.1126
89 1 1.68557 10.4378 0.778156
84 1 1.26087 10.293 2.26055
96 1 1.39937 10.5244 5.80047
21 1 1.92503 11.6793 5.0829
83 1 1.97272 9.86486 3.45811
109 1 0.460584 9.13924 7.92927
107 1 1.96788 9.23301 9.68906
80 1 0.964113 9.47731 11.8748
3 1 3.46182 1.23958 3.5408
16 1 4.12741 0.164967 5.50129
2 1 4.94593 1.47411 3.18049
9 1 5.79569 2.82726 7.153
24 1 5.70492 2.43076 8.65892
26 1 5.83625 0.933983 8.58776
10 1 5.33926 2.06308 6.16372
18 1 3.95423 1.52412 6.0336
25 1 3.47206 2.22466 9.36298
36 1 3.1563 1.05003 11.3995
48 1 4.33373 4.65548 0.709691
44 1 5.99016 5.22315 2.44868
46 1 4.83482 4.57961 2.03733
8 1 3.91788 4.06314 2.96916
58 1 5.89245 4.77236 5.62939
56 1 5.05263 5.94244 5.47293
51 1 3.61934 5.79543 5.77172
70 1 3.40603 5.25056 8.37877
57 1 3.29911 4.88631 6.83742
78 1 5.12797 4.29346 11.5245
68 1 4.40579 4.42649 9.42396
69 1 5.059 5.21573 10.3426
27 1 4.47806 3.0505 9.22505
47 1 5.19546 7.94796 2.43487
82 1 4.90455 8.78538 1.39948
92 1 5.0144 8.61295 3.70179
55 1 5.95341 7.18716 5.53858
73 1 4.19161 7.74413 8.55678
62 1 5.53684 7.49362 7.95057
65 1 3.19209 6.8109 8.4114
61 1 5.63671 8.06901 6.60218
72 1 5.55993 6.5066 10.3029
81 1 5.54413 7.76087 11.0694
88 1 3.49987 11.0428 2.1632
85 1 3.16455 10.4098 1.00517
91 1 5.91697 9.71594 1.04399
90 1 3.67653 9.11918 1.0001
94 1 5.51007 11.7138 5.47563
97 1 5.54044 10.2859 5.25334
87 1 3.11333 10.7168 3.43176
20 1 3.18504 11.8843 4.2963
95 1 5.89847 9.73487 4.04418
93 1 5.64775 9.60237 6.45837
100 1 5.39615 10.4731 7.59658
101 1 5.51693 9.71445 8.84227
106 1 4.93343 11.8978 7.96221
33 1 3.59975 11.9983 8.55921
98 1 3.50555 11.1841 9.68144
103 1 3.22428 11.7935 10.9441
99 1 3.27887 9.79207 9.59418
102 1 4.32834 9.07969 9.01661
114 1 8.60925 1.0636 0.341457
15 1 6.28686 1.03729 5.36838
19 1 6.14573 1.31933 3.9212
121 1 7.76238 0.614062 5.91285
128 1 8.88866 2.97665 3.70562
129 1 8.35478 0.18746 9.37563
130 1 8.26103 2.13424 11.4211
137 1 7.02759 0.504277 9.32774
134 1 6.96563 2.54662 10.8961
35 1 6.87822 2.8466 9.43909
147 1 8.12484 3.78741 2.81579
139 1 8.95702 4.71955 2.11283
141 1 6.86754 4.534 3.29409
150 1 8.14886 4.52859 5.47536
156 1 6.87198 4.6036 4.71775
151 1 8.27125 5.07366 6.80782
166 1 7.22697 4.60737 7.64401
23 1 6.11789 4.13615 6.99852
167 1 7.57641 4.01855 8.90824
165 1 8.33637 4.89564 9.7276
37 1 6.09022 3.28999 11.648
49 1 6.32647 6.66491 2.15676
140 1 7.99375 7.68454 0.383597
142 1 8.58072 7.38481 2.5869
145 1 6.96274 6.67636 0.681379
171 1 8.11027 8.45739 1.63405
144 1 7.31434 7.04926 3.2988
148 1 7.18411 7.1601 4.73754
154 1 8.35935 7.1502 5.53352
153 1 8.1698 6.55922 6.73473
162 1 8.58165 7.49694 7.74916
184 1 8.14193 8.93666 7.51019
188 1 7.99517 8.26872 11.0671
74 1 6.48352 6.90777 9.14608
160 1 7.81743 7.2395 9.89896
169 1 7.09657 9.53003 1.87342
174 1 7.97704 10.9841 3.56656
170 1 6.93637 10.1165 3.21665
177 1 8.34338 9.55504 6.12299
178 1 8.10362 11.1346 6.34415
180 1 7.89147 9.70405 8.60484
181 1 8.60636 10.9521 8.71045
185 1 8.91145 11.4014 7.40967
104 1 6.73251 9.58153 9.41521
110 1 6.49943 9.08283 10.8292
86 1 6.07477 10.1283 11.7812
115 1 10.3233 1.23323 2.44296
116 1 11.6482 0.993539 2.82226
112 1 9.70433 1.22206 1.2498
111 1 9.4857 1.66562 3.53701
126 1 10.9251 0.207048 4.75638
120 1 9.76984 1.11383 4.82804
123 1 9.07273 1.35593 5.95414
127 1 9.85358 0.871564 7.35898
189 1 11.3665 0.497339 7.24559
131 1 9.26943 1.27343 8.8753
135 1 9.92736 2.45712 9.72437
136 1 9.31994 2.91918 10.9834
105 1 11.8296 0.0101488 10.1355
119 1 10.0568 4.12402 1.1601
117 1 11.2913 4.10232 1.87838
157 1 11.3328 4.9189 4.17809
124 1 9.18021 3.70881 5.01453
146 1 11.3855 3.97031 3.30822
138 1 10.2186 5.74187 3.89366
161 1 10.2777 4.94223 8.31128
155 1 9.72347 4.77316 7.05922
133 1 11.4486 4.36918 8.8939
122 1 11.7791 3.7662 6.22739
125 1 10.4313 4.01175 6.05778
163 1 9.44619 5.61201 9.18789
113 1 9.86272 3.82653 11.855
132 1 11.2015 3.12199 9.46298
143 1 9.41135 6.11047 2.82495
168 1 11.139 7.60473 0.563201
149 1 9.69535 7.6531 5.41856
152 1 10.827 7.13612 6.19421
159 1 9.168 7.09184 8.9772
158 1 11.2905 7.02504 10.2119
164 1 10.4181 7.84684 9.49228
79 1 11.2299 6.74242 11.5198
172 1 10.0074 10.0659 4.56232
173 1 11.0291 10.7553 5.07982
175 1 9.42791 9.05859 5.30838
179 1 9.28849 10.6904 3.58403
182 1 11.2861 9.8532 8.11419
186 1 11.4828 11.032 7.29613
176 1 11.9937 10.5963 6.03074
187 1 10.2157 9.88624 10.5578
190 1 10.9942 11.1135 10.7664
183 1 10.5117 9.3033 9.2034
191 1 9.03 9.33326 11.045
ITEM: TIMESTEP
2000
ITEM: NUMBER OF ATOMS
191
ITEM: BOX BOUNDS pp pp pp
-1.1253429013070257e-01 1.2112534290130721e+01
-1.1253429013070257e-01 1.2112534290130721e+01
-1.1253429013070257e-01 1.2112534290130721e+01
ITEM: ATOMS id type x y z
116 1 -0.0492976 0.964376 2.76436
4 1 1.73867 2.78256 1.36804
12 1 1.2128 0.607067 4.90897
118 1 0.265819 0.396498 3.9803
31 1 2.73832 0.91711 8.74287
32 1 1.31028 0.771512 8.59522
11 1 0.626852 0.795299 7.33051
17 1 2.55833 2.09902 6.13796
13 1 1.3185 1.36115 6.15381
28 1 0.341643 0.901402 9.66158
29 1 0.301872 2.31109 10.1595
30 1 1.40637 2.66729 10.8569
38 1 2.61294 1.97981 10.7006
7 1 0.564836 4.81005 1.58568
6 1 1.01774 3.84415 0.702391
45 1 1.18728 5.79042 2.14586
14 1 2.24731 3.52224 6.6135
22 1 0.892637 3.9355 7.07382
63 1 0.671078 4.64871 8.33078
34 1 1.44561 3.97205 11.5811
64 1 1.81251 5.13255 10.6476
66 1 1.91726 4.66058 9.1897
39 1 0.0966189 8.65128 0.949457
43 1 2.31969 8.11586 0.812934
42 1 1.19263 8.16755 1.69
54 1 2.41924 6.53244 5.45954
50 1 2.08888 8.80768 3.82925
52 1 0.961671 6.30165 5.59757
40 1 1.07104 6.51446 3.22754
60 1 2.57696 7.99866 4.99267
53 1 0.361044 6.30054 4.33081
41 1 1.51476 7.86474 2.94798
108 1 1.35208 8.51157 8.59757
67 1 1.74693 7.12907 8.35568
71 1 0.688347 6.1718 8.09093
59 1 0.194194 6.46965 6.78442
77 1 2.11064 6.46074 11.3626
76 1 1.8618 7.75521 11.5601
75 1 1.19725 8.92615 11.1159
89 1 1.45759 10.6302 0.846048
84 1 1.23062 10.6209 2.19408
80 1 0.635262 9.60515 -0.0189249
83 1 2.03286 10.2734 3.22831
21 1 1.89097 11.5727 5.24465
96 1 1.17011 10.4842 5.67308
109 1 0.235995 9.1068 8.06977
107 1 1.85065 9.19624 9.73613
3 1 4.70173 0.579109 1.91296
1 1 3.80802 1.50448 1.7768
2 1 5.93535 0.770418 2.48413
5 1 3.07718 2.51562 2.16341
16 1 4.1724 0.0215898 5.45979
18 1 3.85835 1.41412 5.81192
10 1 4.98176 2.0228 6.26538
24 1 5.50665 2.34223 8.64027
26 1 5.82368 0.89604 8.78962
9 1 5.73993 2.83201 7.18535
25 1 3.21019 2.12405 9.43164
36 1 2.97345 0.79963 11.6407
48 1 4.23227 4.87497 0.586705
44 1 5.62421 5.22982 2.74339
46 1 4.59987 4.60801 1.96854
8 1 3.80873 3.60446 2.64294
56 1 5.15899 5.64357 5.63345
51 1 3.5444 5.68201 5.93571
70 1 3.11053 5.2228 8.50237
57 1 3.16755 4.58236 6.91176
78 1 4.89771 4.59476 11.631
68 1 4.24172 4.4432 9.3186
69 1 4.6988 5.2151 10.3395
37 1 5.74339 3.50925 11.6501
27 1 4.25043 3.02265 9.11241
47 1 4.99639 7.83804 2.33338
82 1 4.68583 8.75438 1.38008
49 1 5.90393 6.66708 2.22682
90 1 3.37803 9.06735 0.938466
55 1 5.81984 7.03296 5.49102
92 1 5.11363 8.4483 3.64114
73 1 4.04311 7.71655 8.69486
62 1 5.47565 7.43164 8.02992
61 1 5.66425 8.01486 6.65443
65 1 3.12711 6.71184 8.42413
72 1 5.36212 6.49373 10.1253
81 1 5.4231 7.57936 10.9666
102 1 4.26322 8.98314 9.17089
88 1 3.81774 11.2932 2.15515
91 1 5.77715 9.57931 1.08617
85 1 3.17602 10.7118 0.62947
94 1 5.53124 11.7469 5.43339
20 1 3.16509 11.5866 4.58849
97 1 5.63942 10.3077 5.21037
87 1 3.26836 10.9121 3.33336
95 1 5.73188 9.5798 4.04114
93 1 5.42471 9.70684 6.48538
100 1 5.25177 10.7357 7.8249
101 1 5.39539 9.85982 8.91094
33 1 3.58852 12.0633 9.03394
106 1 4.91305 12.1246 8.23794
99 1 3.14995 9.73045 9.94634
98 1 3.37783 11.0279 10.1454
103 1 3.20147 11.6034 11.4984
86 1 5.89272 9.97283 11.8614
114 1 8.84008 1.82939 0.408957
15 1 6.70145 0.1933 4.843
19 1 6.71298 0.694857 3.47874
121 1 8.05964 -0.0195264 5.62272
129 1 8.28724 0.406597 9.54998
130 1 8.12107 2.4774 11.5767
137 1 6.86055 0.481966 9.84787
134 1 6.81085 2.74191 11.0789
147 1 7.85117 4.67349 2.45564
141 1 6.73082 4.66189 3.31264
150 1 8.25342 3.81376 4.87308
156 1 6.91218 4.36848 4.73475
58 1 5.96963 4.54964 5.73938
151 1 8.54745 5.28113 7.03932
166 1 7.53082 4.51477 7.67382
23 1 6.28198 4.10954 7.08303
167 1 7.66914 3.90291 8.92299
165 1 8.60138 4.35487 9.83708
35 1 6.68812 2.97948 9.49032
171 1 8.01038 8.54154 1.4482
140 1 7.65029 7.63968 0.227508
142 1 8.27354 7.67261 2.57323
145 1 6.62516 6.65608 0.735912
144 1 7.06898 7.08303 3.29299
148 1 7.01811 6.99744 4.72982
154 1 8.28147 6.98233 5.36426
153 1 8.49117 6.67461 6.70635
162 1 8.53053 7.58671 7.72857
188 1 7.79691 8.18567 11.1102
160 1 7.65487 7.25655 9.82278
74 1 6.23669 6.88131 9.10817
110 1 6.48588 9.02739 10.8861
159 1 8.93917 7.14332 9.14631
169 1 7.04416 9.43024 1.7992
170 1 6.90554 9.96772 3.13351
174 1 8.00552 10.8115 3.4619
177 1 8.90209 9.759 6.29863
178 1 8.74237 11.1725 6.26622
180 1 7.8085 9.89072 8.68847
181 1 8.47556 11.2731 8.73733
184 1 8.46868 9.02733 7.57594
104 1 6.65043 9.62301 9.55166
191 1 8.89178 9.39567 10.8486
115 1 10.7753 1.38488 2.26584
112 1 9.87297 1.30172 1.10274
111 1 10.2004 2.1563 3.35046
126 1 11.2257 0.122378 4.55793
120 1 10.1706 1.16747 4.54491
123 1 9.02447 1.11399 5.45794
127 1 10.1235 0.612043 7.91011
189 1 11.5057 0.150597 7.51279
131 1 9.4519 1.38599 9.07156
135 1 10.1408 2.44907 9.80658
119 1 10.0375 4.72813 1.08769
117 1 11.2639 4.63524 1.79647
139 1 9.05037 5.3633 1.97907
157 1 11.255 5.84206 3.91609
124 1 9.72137 3.73586 5.02967
128 1 10.4878 3.42023 3.81571
146 1 11.1265 4.52195 3.20339
161 1 10.4512 5.11414 8.52153
155 1 9.88155 4.79056 7.13491
125 1 10.6275 4.12969 6.14616
122 1 11.9303 3.88095 6.36986
133 1 11.5385 4.3719 8.9656
163 1 9.33174 5.56515 9.27703
136 1 9.31031 3.35703 10.7125
113 1 9.80086 4.22519 12.0724
132 1 11.397 3.01289 9.56155
143 1 9.22823 6.64012 2.77814
168 1 11.1024 7.95586 0.739746
149 1 9.45012 7.6373 4.73201
138 1 10.1217 6.77611 3.81401
152 1 11.2856 7.41384 6.76592
158 1 11.2047 7.45349 10.4237
164 1 10.439 7.88987 9.33891
79 1 10.7892 7.48632 11.7458
172 1 10.1356 10.1302 4.26717
173 1 11.0991 11.0072 4.77138
179 1 9.34227 10.8036 3.37756
175 1 9.53138 9.10501 5.1224
176 1 11.8667 10.5746 5.82993
182 1 11.3562 9.92013 8.20115
186 1 11.4105 11.0037 7.24016
185 1 9.36244 11.664 7.54609
187 1 10.0427 9.96215 10.2307
190 1 10.7412 11.1701 10.5302
105 1 11.7198 12.0905 10.1724
183 1 10.5138 9.32569 9.07442
ITEM: TIMESTEP
3000
ITEM: NUMBER OF ATOMS
191
ITEM: BOX BOUNDS pp pp pp
-2.1674344418607910e-01 1.2216743444186077e+01
-2.1674344418607910e-01 1.2216743444186077e+01
-2.1674344418607910e-01 1.2216743444186077e+01
ITEM: ATOMS id type x y z
116 1 -0.203119 1.01928 2.60265
4 1 1.60273 2.81116 1.47798
5 1 2.98461 2.5493 1.84214
12 1 1.17283 0.397997 4.93104
118 1 0.140177 0.632225 4.0029
31 1 2.55789 0.918738 9.01222
32 1 1.12804 0.684241 8.6632
11 1 0.402639 0.569543 7.28156
17 1 2.3361 2.165 6.13718
13 1 1.14125 1.15279 6.12873
28 1 0.327402 0.86468 9.77783
29 1 0.165129 2.22551 10.3177
30 1 1.1917 2.54224 11.1649
38 1 2.49328 1.95433 11.1026
36 1 2.84842 0.642861 11.8607
7 1 0.173431 4.57151 1.61891
6 1 0.891406 3.76883 0.706194
45 1 0.945867 5.5278 2.27295
14 1 2.0983 3.52824 6.73096
22 1 0.666705 3.88878 7.04802
63 1 0.632151 4.77494 8.35866
34 1 1.34639 3.88211 11.7425
64 1 1.84258 4.90917 10.9171
66 1 1.69889 4.80931 9.38665
39 1 0.309343 8.35617 0.656893
43 1 2.4923 8.07899 0.513834
42 1 1.49467 8.02028 1.51342
54 1 2.42366 6.58121 5.47665
50 1 2.13268 8.67066 3.82375
52 1 0.903706 6.31254 5.49323
40 1 1.18327 6.4592 3.28333
53 1 0.157949 6.37682 4.24506
60 1 2.722 7.94867 4.92015
41 1 1.52024 7.74736 2.88833
108 1 1.44553 8.42401 8.51602
67 1 1.80942 7.09148 8.53354
109 1 0.297439 8.97831 7.76144
59 1 0.242817 6.77011 6.65634
71 1 0.577254 6.26229 8.04245
152 1 0.0654966 8.21133 6.62052
77 1 2.04643 6.19832 11.4371
76 1 2.00273 7.51807 11.6464
75 1 1.44404 8.87909 11.1292
89 1 1.41282 10.4033 0.623822
84 1 1.08452 10.3893 2.12854
80 1 0.677249 9.48652 -0.18809
83 1 2.14988 9.88149 3.00599
21 1 1.86297 11.5646 4.93347
96 1 1.13897 10.518 5.39425
107 1 1.82399 9.26549 9.76005
3 1 4.32645 0.23694 1.90219
1 1 3.53319 1.34918 2.17508
2 1 5.71894 0.539948 2.16801
16 1 4.16942 -0.0225429 5.17934
18 1 3.70576 1.31511 5.95541
10 1 4.86158 2.05783 6.34648
24 1 5.53089 2.33991 8.90407
26 1 5.69477 0.540687 8.86776
9 1 5.49324 2.944 7.49247
25 1 3.10214 2.15222 9.91742
48 1 4.69918 5.26903 0.345772
8 1 3.70939 3.70571 2.04651
46 1 4.65165 4.68068 1.64213
44 1 5.52052 5.35128 2.55183
56 1 5.02161 5.86101 5.72854
58 1 5.89328 4.65229 5.79679
51 1 3.48361 5.64582 6.14433
70 1 3.06623 5.21862 8.63354
57 1 3.0587 4.53478 7.05909
78 1 5.34312 4.74447 11.6835
68 1 4.20949 4.42682 9.36811
69 1 5.04979 5.21641 10.3543
37 1 5.87568 3.5628 11.968
27 1 4.18598 3.01649 9.43366
47 1 4.89337 8.05744 2.27909
82 1 4.78226 8.79857 1.10091
49 1 5.66091 6.83214 2.60184
55 1 5.90016 7.10545 5.75763
92 1 4.97925 8.7936 3.4717
73 1 4.09552 7.8051 8.471
62 1 5.54098 7.63985 8.14899
61 1 5.64823 8.23332 6.74607
65 1 3.1298 6.71196 8.53239
72 1 5.53251 6.51461 10.1985
81 1 5.08402 7.32583 11.2258
102 1 4.16079 9.15808 9.24483
88 1 3.58393 11.4331 1.85871
85 1 2.82155 10.8057 0.535685
91 1 5.87839 9.64264 0.748929
90 1 3.46256 9.05598 0.486163
94 1 5.52536 11.7681 5.1955
20 1 3.19836 11.5626 4.46923
97 1 5.60469 10.3443 5.15454
87 1 3.04715 10.9242 3.12102
93 1 5.27137 9.55955 6.4036
100 1 5.13849 10.7435 7.73227
101 1 5.38431 9.8238 8.86017
106 1 4.70415 12.0878 8.3809
33 1 3.36017 12.2051 8.93827
98 1 3.28808 11.2272 10.2637
99 1 3.15578 9.93337 9.78979
103 1 3.1555 11.6887 11.758
86 1 5.97318 9.73135 11.7717
114 1 9.03036 1.81791 0.283878
15 1 6.75531 0.058924 4.69941
19 1 6.38533 0.637802 3.34964
123 1 8.88625 0.913582 5.07139
121 1 7.97761 -0.137329 5.27889
129 1 8.27173 0.0597971 9.48282
137 1 6.8476 0.233786 9.49318
130 1 8.24899 2.68628 11.8166
134 1 6.8523 2.76312 11.2687
35 1 6.61605 2.99468 9.76261
147 1 7.71386 4.42206 2.32842
139 1 8.95972 5.11105 2.0391
141 1 6.67585 4.63951 3.20767
150 1 8.0951 3.94611 4.98862
156 1 6.71432 4.38074 4.64766
151 1 8.42936 5.36811 7.26737
166 1 7.37936 4.52733 7.9185
23 1 6.22511 4.06863 7.02283
165 1 8.54832 4.5736 10.2358
136 1 9.06883 3.82656 11.3291
167 1 7.53232 3.96185 9.17118
171 1 7.64991 8.17331 1.26496
140 1 8.14833 7.70249 -0.0142417
142 1 7.97683 7.33617 2.45745
143 1 9.10501 6.54243 2.6953
144 1 6.85912 7.25551 3.31018
148 1 6.8949 7.13524 4.68992
154 1 8.27824 7.19893 5.3103
153 1 8.34142 6.69723 6.6245
162 1 8.65528 7.93933 7.65053
184 1 8.16208 9.28231 7.35015
74 1 6.34658 7.03502 9.19172
159 1 9.02447 7.58514 8.96809
188 1 7.92822 8.60652 11.0127
160 1 7.82756 7.43539 9.75804
169 1 6.9598 9.47927 1.58209
170 1 7.01323 10.1331 2.93724
95 1 5.97792 9.62733 3.9927
174 1 8.35361 10.7089 3.20966
177 1 8.74884 9.86945 6.15721
178 1 8.67401 11.3207 6.13771
180 1 7.85625 10.1409 8.52972
181 1 8.54281 11.3391 8.52587
104 1 6.71275 9.84649 9.31591
110 1 6.68881 9.39907 10.7465
191 1 9.09751 9.69102 11.0565
115 1 11.0021 1.66416 2.2394
112 1 10.1343 1.6586 1.07926
111 1 10.3932 2.12133 3.50764
126 1 11.2528 0.194494 4.63955
120 1 10.2148 1.16146 4.56448
127 1 10.1552 0.502733 7.90455
131 1 9.4999 0.900035 9.27436
189 1 11.5146 -0.064798 7.53984
135 1 10.1517 2.14866 9.74306
119 1 10.0445 4.45131 1.29524
117 1 11.2127 4.56846 2.10468
113 1 10.0088 4.16174 -0.0510826
146 1 11.0188 4.72831 3.41645
124 1 9.49895 3.77262 5.20182
128 1 10.1967 3.57311 3.90925
161 1 10.4592 4.88437 8.62504
155 1 9.74253 4.76174 7.33987
125 1 10.3992 3.97131 6.38428
122 1 11.815 3.8655 6.24731
163 1 9.7418 5.40802 9.67337
133 1 11.6259 4.15836 9.04442
132 1 11.4051 2.86146 9.88948
168 1 11.5108 7.54213 0.427108
145 1 9.15899 6.91687 0.0160203
149 1 9.46256 7.84247 4.78009
138 1 9.93748 6.87265 3.75992
157 1 11.2293 6.02271 3.88825
158 1 10.6603 6.96567 10.591
164 1 10.3002 7.85138 9.51232
79 1 10.4565 7.07653 12.0945
172 1 10.4262 10.0938 4.38323
173 1 11.1805 11.0773 4.96051
179 1 9.65461 10.4749 3.34892
176 1 12.2064 10.514 5.87898
175 1 9.6913 9.21535 5.25645
182 1 11.4726 9.83241 8.21422
186 1 11.867 10.9636 7.37549
185 1 9.18708 11.9575 7.35543
187 1 10.2356 10.0827 10.3653
190 1 11.0447 11.2475 10.7763
105 1 12.0147 12.2039 10.3696
183 1 10.7142 9.23931 9.24865
ITEM: TIMESTEP
4000
ITEM: NUMBER OF ATOMS
191
ITEM: BOX BOUNDS pp pp pp
-1.7484292144443681e-01 1.2174842921444490e+01
-1.7484292144443681e-01 1.2174842921444490e+01
-1.7484292144443681e-01 1.2174842921444490e+01
ITEM: ATOMS id type x y z
4 1 1.92424 2.81453 1.12923
12 1 0.957391 0.599273 5.05598
118 1 -0.062641 0.56479 3.99012
11 1 0.570255 0.492051 7.47124
32 1 1.47135 0.754145 8.68239
17 1 2.40867 1.97569 6.49983
13 1 1.29992 1.08357 6.32309
31 1 2.86663 0.979922 9.07554
28 1 0.486645 0.776753 9.76666
29 1 0.335027 2.11245 10.0597
30 1 1.37236 2.64996 10.9407
38 1 2.59408 1.96398 11.0781
36 1 2.84872 0.86259 12.0345
7 1 0.157733 4.38404 1.49998
6 1 0.906946 3.68451 0.607184
45 1 1.13923 5.06176 2.37792
14 1 2.18216 3.58141 6.7788
22 1 0.75416 3.85595 7.1132
63 1 0.653634 4.75001 8.46516
34 1 0.963667 3.89185 11.6024
64 1 1.61374 4.92304 10.8583
66 1 1.77004 4.71709 9.31151
39 1 0.139762 8.37597 0.594731
43 1 2.54928 8.00217 0.497098
42 1 1.3986 7.82179 1.34201
41 1 1.47702 7.33721 2.56653
54 1 2.54198 6.47757 5.55809
50 1 2.49611 8.18371 3.39404
60 1 2.92288 7.6007 4.5633
52 1 1.08797 6.29783 5.47353
40 1 1.08972 6.20594 3.12178
53 1 0.254837 6.30501 4.20353
108 1 1.42707 8.50441 8.6107
67 1 1.89027 7.12431 8.49773
109 1 0.186924 8.84064 7.8982
59 1 0.500641 6.70123 6.61316
71 1 0.792482 6.22733 7.90026
152 1 -0.107964 8.06717 6.74001
77 1 1.83651 6.16544 11.3134
76 1 1.97551 7.5797 11.5622
75 1 1.3484 8.71086 11.0702
89 1 1.21382 10.3549 0.779303
84 1 1.01457 10.0917 2.13831
80 1 0.613464 9.34398 -0.30743
96 1 0.84998 10.4259 5.38759
21 1 1.77762 11.5045 4.94494
83 1 2.17146 9.58862 3.03387
105 1 0.0197427 12.0087 10.5362
107 1 1.86952 9.12507 9.83745
103 1 2.85035 11.6583 11.5774
3 1 4.34305 0.177576 1.55528
1 1 3.48976 1.07789 0.967752
2 1 5.54677 0.477042 2.28334
5 1 3.13823 2.38623 1.57946
16 1 4.08483 0.0981349 5.21816
10 1 4.90519 2.12214 6.46729
9 1 5.60002 2.98902 7.51211
26 1 5.8434 -0.0795616 8.95613
24 1 5.68277 2.63495 8.86464
18 1 3.75971 1.34518 6.05832
25 1 3.41849 1.99049 9.8325
48 1 4.35308 4.84731 0.641072
8 1 4.11015 3.03918 2.30608
46 1 4.49343 4.36536 1.99089
44 1 5.29325 5.32978 2.79912
56 1 4.88826 5.76962 5.67689
51 1 3.48049 5.49162 6.08681
70 1 3.15523 5.136 8.65559
57 1 3.13549 4.65979 7.1642
78 1 5.17684 4.51429 11.9668
68 1 4.18387 4.43178 9.46097
69 1 4.80407 5.17215 10.638
27 1 4.35459 2.87354 9.37913
47 1 4.88819 8.04058 2.22329
82 1 4.79221 8.67884 1.00504
49 1 5.55057 6.77689 2.70255
90 1 3.50347 9.0483 0.545139
92 1 4.99039 8.92895 3.40321
55 1 5.73825 7.08833 5.60118
73 1 4.20294 7.64859 8.8622
62 1 5.30717 7.51713 8.11862
61 1 5.39703 8.15939 6.64409
65 1 3.23713 6.74516 8.66871
102 1 4.30288 8.93455 9.51583
72 1 5.79049 6.39585 10.4009
88 1 3.58692 11.311 1.77021
91 1 5.82681 9.53578 0.663759
85 1 2.80598 10.5567 0.487782
94 1 5.39669 11.8036 5.36408
97 1 5.58339 10.2978 5.26395
87 1 3.07734 10.9341 3.05976
95 1 5.93556 9.85183 3.96353
20 1 3.02159 11.6712 4.23889
93 1 5.24158 9.72027 6.45291
100 1 5.21265 10.4867 7.77495
106 1 4.76255 11.7145 8.39643
101 1 5.4385 9.6549 9.03255
98 1 3.04053 11.1539 10.2453
99 1 3.13554 9.82744 9.84418
33 1 3.58854 12.0827 9.1728
86 1 5.83294 9.59028 11.6144
114 1 9.09915 1.68079 0.125265
15 1 6.497 0.143135 4.85061
121 1 7.80095 0.00255602 5.42574
123 1 8.79471 1.02867 5.2207
19 1 6.24386 0.68594 3.53774
129 1 8.31937 0.54847 9.0549
130 1 8.44864 2.57123 11.5872
137 1 6.79758 0.63169 9.46536
147 1 7.661 4.57754 2.37516
139 1 8.90506 5.27514 1.88286
141 1 6.60039 4.64219 3.37362
150 1 8.23537 3.90773 5.52281
156 1 6.90315 4.35207 4.8856
58 1 5.79328 4.70966 5.75221
151 1 8.56148 5.59812 7.35898
166 1 7.37417 4.75905 7.74717
23 1 6.19788 4.28362 7.17157
35 1 6.88024 3.10941 9.5621
167 1 7.74518 4.24446 9.14663
165 1 8.74613 4.79235 10.2364
37 1 6.00612 3.42096 12.0939
134 1 7.03063 2.82273 11.0242
171 1 7.73358 8.63688 1.58069
140 1 8.30109 8.30383 0.298256
142 1 8.01463 7.65018 2.42798
143 1 9.09929 6.6186 2.56579
145 1 9.10611 7.21832 0.0874254
144 1 6.88283 7.16433 3.35607
148 1 6.93785 7.18952 4.83605
154 1 8.18364 7.25782 5.36586
153 1 8.50358 7.0673 6.73907
162 1 8.66564 8.06783 7.55092
159 1 8.80952 7.831 8.88588
74 1 6.37028 6.95203 9.28304
160 1 7.63412 7.28317 9.42298
81 1 6.06876 7.04358 11.6378
169 1 6.74789 9.62502 1.64792
170 1 6.66577 10.2031 2.84442
174 1 7.89785 10.8004 3.11059
177 1 8.40395 9.85661 5.95915
181 1 8.47684 11.3657 8.45064
184 1 8.19753 9.34489 7.31998
180 1 7.80435 10.1154 8.4915
178 1 8.36707 11.2666 6.08733
104 1 6.7726 9.7914 9.50742
110 1 6.96754 9.70315 10.9482
188 1 8.18028 9.26185 11.5987
115 1 10.7077 1.79157 2.46604
112 1 9.99071 1.86444 1.17834
116 1 12.0436 1.25664 2.75749
111 1 10.2102 2.2363 3.7612
126 1 10.9794 0.192013 4.50348
120 1 9.98566 1.08826 4.57569
127 1 10.1926 0.307195 7.65151
131 1 9.62274 1.19646 8.63487
135 1 10.5295 2.19981 8.95263
132 1 11.7032 2.83069 9.44564
119 1 10.0519 4.66951 1.16992
117 1 11.185 4.5235 1.96621
113 1 9.97397 4.41271 -0.219234
146 1 10.9195 4.6214 3.36361
124 1 9.58665 3.88573 5.22085
128 1 10.2138 3.62562 4.03329
161 1 10.4909 5.0182 8.70077
155 1 9.90141 4.85649 7.35387
125 1 10.4428 4.07127 6.40839
122 1 11.7755 3.56408 6.55966
133 1 11.7246 4.19284 8.97323
163 1 9.90071 5.66555 9.67621
136 1 9.33847 3.78473 11.1214
168 1 11.4084 7.52901 0.329611
149 1 9.3856 7.83448 4.62338
138 1 10.0324 6.97251 3.5946
157 1 11.2268 6.04331 3.90554
158 1 10.3131 6.90037 10.293
79 1 10.3528 7.15767 11.7601
164 1 10.0212 8.12188 9.58023
172 1 10.0734 10.2707 4.16148
173 1 10.9507 11.1253 4.88193
179 1 9.19934 10.9917 3.40424
175 1 9.32772 9.29291 5.02083
176 1 11.8503 10.6086 5.84558
182 1 11.4647 9.87544 8.31548
186 1 11.6442 10.9072 7.3503
185 1 9.23389 11.6423 7.23181
189 1 11.6382 12.38 7.62177
187 1 10.6435 10.2263 10.7981
190 1 11.4336 11.2987 11.107
191 1 9.37393 10.1251 11.4952
183 1 10.7486 9.40761 9.58097
ITEM: TIMESTEP
5000
ITEM: NUMBER OF ATOMS
191
ITEM: BOX BOUNDS pp pp pp
-1.2322889511146240e-01 1.2123228895111549e+01
-1.2322889511146240e-01 1.2123228895111549e+01
-1.2322889511146240e-01 1.2123228895111549e+01
ITEM: ATOMS id type x y z
4 1 1.69006 2.67158 1.38138
12 1 1.11 0.705442 4.96203
118 1 0.0125099 0.952526 4.03486
11 1 0.778888 0.668698 7.38257
32 1 1.39469 0.673091 8.69721
31 1 2.78731 0.697605 8.95781
13 1 1.38747 1.17898 6.22197
17 1 2.51881 2.08862 6.18066
28 1 0.465435 0.810217 9.73279
29 1 0.329003 2.1464 10.2085
30 1 1.45531 2.50381 10.9992
38 1 2.66467 1.79822 10.958
7 1 0.369893 4.51982 1.65671
6 1 1.11235 3.72678 0.850936
45 1 1.34732 5.54109 2.3716
63 1 0.866209 4.75401 8.31376
22 1 0.752851 3.80671 7.07332
14 1 2.12796 3.38577 6.52187
34 1 1.20126 3.70264 11.594
64 1 1.38777 4.91232 10.9726
66 1 1.73548 4.73988 9.57308
41 1 1.2761 7.83691 2.80343
43 1 2.37224 8.03022 0.653641
42 1 1.24533 8.19222 1.43012
39 1 0.0943196 8.72263 0.73202
54 1 2.7033 6.71207 5.0733
50 1 2.0292 8.72655 3.56842
53 1 0.176111 6.30056 4.20856
52 1 1.19829 6.44712 5.27332
40 1 0.944114 6.60118 3.08084
108 1 1.35571 8.12333 8.7479
67 1 1.90323 6.91398 8.4945
71 1 1.1379 6.11085 7.72913
59 1 0.686805 6.57067 6.57695
152 1 -0.0744842 7.70938 6.79561
109 1 0.417651 8.65002 7.8138
77 1 1.59817 6.13677 11.4521
76 1 1.92124 7.57781 11.7372
75 1 1.369 8.74278 11.0479
107 1 1.90978 9.01894 9.85512
89 1 1.50887 10.5129 0.709772
84 1 1.14472 10.4969 2.07003
96 1 1.02268 10.7774 5.52489
21 1 1.85256 11.7619 4.83846
83 1 2.17743 10.0603 3.00559
80 1 0.612862 9.77709 11.9366
105 1 0.385601 11.8271 10.6427
3 1 4.34064 0.41868 1.70769
1 1 3.60512 1.22577 0.981467
2 1 5.58295 0.783266 2.37111
5 1 2.95688 2.25821 1.65925
16 1 4.0172 0.367955 5.22549
18 1 3.88043 1.6562 5.79825
10 1 4.80925 2.35435 6.64794
25 1 3.28962 1.95771 9.62927
36 1 3.19144 0.801927 11.8998
48 1 4.47099 4.633 0.671676
8 1 3.75295 3.26524 2.35242
46 1 4.45001 4.40527 2.12306
44 1 5.51316 5.18431 2.66049
51 1 3.60312 5.64053 5.52106
56 1 4.94107 5.77202 5.64412
57 1 2.85592 4.59953 6.01795
58 1 6.02535 4.64291 5.78788
9 1 5.86858 2.93691 7.50103
24 1 5.59115 2.90002 8.93836
78 1 5.29164 4.36422 11.8478
68 1 4.1953 4.56536 9.82785
69 1 5.19596 5.13495 10.6317
70 1 3.1239 5.26419 9.37871
27 1 4.30275 3.13909 9.41743
47 1 4.68544 7.81936 2.43827
82 1 4.53073 8.75594 1.34612
49 1 5.63915 6.65014 2.72142
90 1 3.35884 8.98099 0.649895
92 1 4.40932 8.51834 3.78009
55 1 5.70318 7.04944 5.67887
60 1 3.06931 8.06217 4.33889
61 1 5.40705 7.83135 6.82446
62 1 5.47892 7.22124 8.2274
73 1 4.18058 7.55029 9.0204
65 1 3.14831 6.6216 8.90035
102 1 4.35785 8.84555 9.64125
88 1 3.68565 11.4428 1.91694
91 1 5.62322 9.33619 0.803668
85 1 2.93941 10.6219 0.642926
94 1 5.22841 11.6635 5.38092
97 1 5.11828 10.1913 5.37192
95 1 5.38885 9.48254 4.2235
20 1 3.16311 11.8313 4.22148
87 1 3.21825 11.0259 3.14133
93 1 5.16409 9.49263 6.73214
100 1 5.23918 10.2083 7.95007
106 1 4.92865 11.6037 8.37986
98 1 3.49278 11.0126 10.2929
103 1 3.32242 11.5913 11.7134
33 1 3.69489 11.7901 9.10551
99 1 3.16143 9.66199 9.84445
101 1 5.54257 9.52208 9.16809
123 1 8.58615 1.15598 4.71098
121 1 7.72694 0.0769392 5.14806
19 1 6.0601 0.728867 3.51981
15 1 6.35455 0.0789565 4.74706
129 1 8.37826 0.440199 8.99901
26 1 5.93566 0.149606 9.0615
130 1 8.26833 2.88635 11.6108
137 1 7.09675 0.696799 9.47754
134 1 6.91971 2.76102 11.0977
147 1 7.80771 4.51616 2.42418
139 1 9.00729 5.27903 2.06243
141 1 6.65147 4.59285 3.20669
150 1 8.0562 3.70315 5.07089
156 1 6.81525 4.31046 4.60948
151 1 8.42151 5.59708 7.30403
166 1 7.25302 4.84897 7.93127
23 1 6.37096 4.17553 7.0729
167 1 7.69032 4.19623 9.16003
37 1 5.91266 3.16104 11.9668
35 1 6.75126 3.15327 9.7014
165 1 8.65335 4.845 10.0155
136 1 8.90214 4.08946 11.2221
171 1 7.73426 8.41849 1.57971
140 1 8.26149 8.19143 0.236303
142 1 7.94704 7.38566 2.56446
143 1 9.08533 6.53176 2.70545
145 1 9.02542 7.06143 -0.0245797
144 1 6.87571 7.06778 3.43136
148 1 6.849 7.14789 4.83832
154 1 8.18271 7.16377 5.39137
153 1 8.34852 6.87228 6.77461
162 1 8.36359 8.02504 7.5683
159 1 8.62619 7.80192 8.92483
160 1 7.36156 8.04429 9.52068
74 1 6.48082 6.99017 9.34954
81 1 6.71996 6.17549 11.7912
72 1 6.22939 6.05542 10.4608
169 1 6.60739 9.33029 1.79495
174 1 7.51557 10.7861 3.42427
170 1 6.41917 9.89684 3.16111
179 1 8.8206 10.6449 3.22985
178 1 8.37646 11.3026 5.84785
177 1 8.53419 9.839 5.92561
181 1 8.29041 11.5044 8.17593
184 1 8.14829 9.30786 7.26299
180 1 7.80253 10.1875 8.30956
104 1 7.0299 9.51672 9.57467
110 1 7.13892 9.86326 10.9826
188 1 8.40226 9.41619 11.6179
86 1 6.01024 9.80537 11.853
115 1 10.7135 1.90392 2.1029
112 1 9.96023 1.77197 0.972494
114 1 9.05692 1.81127 -0.0764718
116 1 12.0328 1.47193 2.67778
111 1 9.90079 2.32811 3.28177
120 1 9.77805 1.12856 4.10839
126 1 10.9231 0.32418 4.3888
127 1 10.3259 0.386395 7.64466
131 1 9.68073 1.0732 8.71112
135 1 10.4362 2.22691 9.22889
119 1 10.1448 4.80274 1.28184
117 1 11.342 4.55922 1.9535
113 1 9.70686 4.6302 -0.0425475
146 1 10.8338 4.57654 3.31896
124 1 9.48117 3.78445 5.17916
128 1 10.2067 3.50456 3.98471
157 1 11.041 5.94179 4.01497
161 1 10.5898 4.99604 8.71462
155 1 9.74416 4.91878 7.43083
125 1 10.3494 3.98979 6.3678
122 1 11.7214 3.5817 6.54579
133 1 11.7683 4.35876 9.03058
163 1 9.8264 5.69563 9.79125
132 1 11.7394 3.0147 9.42466
168 1 11.1282 7.96685 0.480128
149 1 9.40474 7.71342 4.78281
138 1 10.0253 6.76854 3.80271
158 1 10.3704 7.02771 10.3675
79 1 10.4079 7.07312 11.8705
164 1 10.0604 8.18063 9.32566
172 1 9.99934 10.2851 4.06943
173 1 10.9299 11.1296 4.66658
176 1 11.8665 10.5936 5.79327
175 1 9.46191 9.13942 4.96529
182 1 11.6972 9.58492 8.10263
186 1 11.6462 10.7233 7.15529
185 1 9.16808 11.8274 7.04498
189 1 11.654 12.0915 7.50196
187 1 10.8106 10.1549 10.5409
190 1 12.0445 10.6002 11.0973
191 1 9.59402 10.0631 11.3078
183 1 10.7889 9.42606 9.27469
ITEM: TIMESTEP
6000
ITEM: NUMBER OF ATOMS
191
ITEM: BOX BOUNDS pp pp pp
-1.2801069915168364e-01 1.2128010699151741e+01
-1.2801069915168364e-01 1.2128010699151741e+01
-1.2801069915168364e-01 1.2128010699151741e+01
ITEM: ATOMS id type x y z
116 1 -0.00437517 1.09876 2.52667
12 1 1.08976 0.470988 5.00478
118 1 0.118933 0.646995 3.97568
11 1 0.720882 0.55697 7.43097
32 1 1.50064 0.627369 8.60563
13 1 1.40415 1.04829 6.22044
17 1 2.60253 1.90897 6.15768
28 1 0.750281 0.545353 9.84084
29 1 0.473201 1.88828 10.2053
30 1 1.49554 2.54077 11.068
38 1 2.74178 1.84264 10.9414
7 1 0.247398 4.69477 1.37424
6 1 0.964524 3.72627 0.683818
45 1 0.950273 5.75096 1.93461
4 1 1.96007 3.03185 1.40635