ITEM: TIMESTEP
1000
ITEM: NUMBER OF ATOMS
191
ITEM: BOX BOUNDS pp pp pp
0.0000000000000000e+00 1.2000000000000000e+01
0.0000000000000000e+00 1.2000000000000000e+01
0.0000000000000000e+00 1.2000000000000000e+01
ITEM: ATOMS id type x y z
12 1 1.20509 0.848646 4.8824
1 1 2.45416 2.21262 3.44646
118 1 0.0568909 0.931156 4.21542
31 1 2.7963 1.20012 8.59879
32 1 1.33362 1.11411 8.47168
11 1 0.524598 1.20419 7.34151
17 1 2.71238 2.40746 6.16634
13 1 1.38231 1.67759 6.10224
28 1 0.600435 1.06936 9.68613
29 1 0.380463 2.49177 10.0643
30 1 1.54051 2.88833 10.6729
38 1 2.76966 2.1392 10.5977
4 1 2.18611 3.42645 1.49308
6 1 1.37529 4.1638 0.681185
7 1 0.316389 4.7799 1.23673
5 1 2.72351 3.38718 2.80547
53 1 0.358511 5.83537 4.1516
14 1 2.48962 3.77126 6.47623
22 1 1.04066 4.12647 6.92577
63 1 0.861504 4.89394 8.19573
34 1 1.60511 4.1806 11.3394
64 1 1.84804 5.17285 10.4568
66 1 1.97643 4.87993 9.13738
39 1 0.181589 8.50532 0.712513
43 1 2.65505 8.15867 0.868042
42 1 1.41328 7.99508 1.5577
45 1 0.410238 6.0196 1.6437
40 1 0.607622 6.50916 2.98891
41 1 1.37971 7.70322 2.91852
54 1 2.3679 6.52629 5.21292
50 1 2.14686 8.46843 3.69532
52 1 1.04645 6.21113 5.25484
60 1 2.43505 7.90596 4.88676
59 1 0.319578 6.54721 6.41356
67 1 1.82448 7.31926 8.10585
71 1 0.824954 6.39916 7.65354
108 1 1.50378 8.72625 8.5489
75 1 1.63839 8.73584 10.9
76 1 2.39605 7.75422 11.4558
77 1 2.36185 6.3648 11.1126
89 1 1.68557 10.4378 0.778156
84 1 1.26087 10.293 2.26055
96 1 1.39937 10.5244 5.80047
21 1 1.92503 11.6793 5.0829
83 1 1.97272 9.86486 3.45811
109 1 0.460584 9.13924 7.92927
107 1 1.96788 9.23301 9.68906
80 1 0.964113 9.47731 11.8748
3 1 3.46182 1.23958 3.5408
16 1 4.12741 0.164967 5.50129
2 1 4.94593 1.47411 3.18049
9 1 5.79569 2.82726 7.153
24 1 5.70492 2.43076 8.65892
26 1 5.83625 0.933983 8.58776
10 1 5.33926 2.06308 6.16372
18 1 3.95423 1.52412 6.0336
25 1 3.47206 2.22466 9.36298
36 1 3.1563 1.05003 11.3995
48 1 4.33373 4.65548 0.709691
44 1 5.99016 5.22315 2.44868
46 1 4.83482 4.57961 2.03733
8 1 3.91788 4.06314 2.96916
58 1 5.89245 4.77236 5.62939
56 1 5.05263 5.94244 5.47293
51 1 3.61934 5.79543 5.77172
70 1 3.40603 5.25056 8.37877
57 1 3.29911 4.88631 6.83742
78 1 5.12797 4.29346 11.5245
68 1 4.40579 4.42649 9.42396
69 1 5.059 5.21573 10.3426
27 1 4.47806 3.0505 9.22505
47 1 5.19546 7.94796 2.43487
82 1 4.90455 8.78538 1.39948
92 1 5.0144 8.61295 3.70179
55 1 5.95341 7.18716 5.53858
73 1 4.19161 7.74413 8.55678
62 1 5.53684 7.49362 7.95057
65 1 3.19209 6.8109 8.4114
61 1 5.63671 8.06901 6.60218
72 1 5.55993 6.5066 10.3029
81 1 5.54413 7.76087 11.0694
88 1 3.49987 11.0428 2.1632
85 1 3.16455 10.4098 1.00517
91 1 5.91697 9.71594 1.04399
90 1 3.67653 9.11918 1.0001
94 1 5.51007 11.7138 5.47563
97 1 5.54044 10.2859 5.25334
87 1 3.11333 10.7168 3.43176
20 1 3.18504 11.8843 4.2963
95 1 5.89847 9.73487 4.04418
93 1 5.64775 9.60237 6.45837
100 1 5.39615 10.4731 7.59658
101 1 5.51693 9.71445 8.84227
106 1 4.93343 11.8978 7.96221
33 1 3.59975 11.9983 8.55921
98 1 3.50555 11.1841 9.68144
103 1 3.22428 11.7935 10.9441
99 1 3.27887 9.79207 9.59418
102 1 4.32834 9.07969 9.01661
114 1 8.60925 1.0636 0.341457
15 1 6.28686 1.03729 5.36838
19 1 6.14573 1.31933 3.9212
121 1 7.76238 0.614062 5.91285
128 1 8.88866 2.97665 3.70562
129 1 8.35478 0.18746 9.37563
130 1 8.26103 2.13424 11.4211
137 1 7.02759 0.504277 9.32774
134 1 6.96563 2.54662 10.8961
35 1 6.87822 2.8466 9.43909
147 1 8.12484 3.78741 2.81579
139 1 8.95702 4.71955 2.11283
141 1 6.86754 4.534 3.29409
150 1 8.14886 4.52859 5.47536
156 1 6.87198 4.6036 4.71775
151 1 8.27125 5.07366 6.80782
166 1 7.22697 4.60737 7.64401
23 1 6.11789 4.13615 6.99852
167 1 7.57641 4.01855 8.90824
165 1 8.33637 4.89564 9.7276
37 1 6.09022 3.28999 11.648
49 1 6.32647 6.66491 2.15676
140 1 7.99375 7.68454 0.383597
142 1 8.58072 7.38481 2.5869
145 1 6.96274 6.67636 0.681379
171 1 8.11027 8.45739 1.63405
144 1 7.31434 7.04926 3.2988
148 1 7.18411 7.1601 4.73754
154 1 8.35935 7.1502 5.53352
153 1 8.1698 6.55922 6.73473
162 1 8.58165 7.49694 7.74916
184 1 8.14193 8.93666 7.51019
188 1 7.99517 8.26872 11.0671
74 1 6.48352 6.90777 9.14608
160 1 7.81743 7.2395 9.89896
169 1 7.09657 9.53003 1.87342
174 1 7.97704 10.9841 3.56656
170 1 6.93637 10.1165 3.21665
177 1 8.34338 9.55504 6.12299
178 1 8.10362 11.1346 6.34415
180 1 7.89147 9.70405 8.60484
181 1 8.60636 10.9521 8.71045
185 1 8.91145 11.4014 7.40967
104 1 6.73251 9.58153 9.41521
110 1 6.49943 9.08283 10.8292
86 1 6.07477 10.1283 11.7812
115 1 10.3233 1.23323 2.44296
116 1 11.6482 0.993539 2.82226
112 1 9.70433 1.22206 1.2498
111 1 9.4857 1.66562 3.53701
126 1 10.9251 0.207048 4.75638
120 1 9.76984 1.11383 4.82804
123 1 9.07273 1.35593 5.95414
127 1 9.85358 0.871564 7.35898
189 1 11.3665 0.497339 7.24559
131 1 9.26943 1.27343 8.8753
135 1 9.92736 2.45712 9.72437
136 1 9.31994 2.91918 10.9834
105 1 11.8296 0.0101488 10.1355
119 1 10.0568 4.12402 1.1601
117 1 11.2913 4.10232 1.87838
157 1 11.3328 4.9189 4.17809
124 1 9.18021 3.70881 5.01453
146 1 11.3855 3.97031 3.30822
138 1 10.2186 5.74187 3.89366
161 1 10.2777 4.94223 8.31128
155 1 9.72347 4.77316 7.05922
133 1 11.4486 4.36918 8.8939
122 1 11.7791 3.7662 6.22739
125 1 10.4313 4.01175 6.05778
163 1 9.44619 5.61201 9.18789
113 1 9.86272 3.82653 11.855
132 1 11.2015 3.12199 9.46298
143 1 9.41135 6.11047 2.82495
168 1 11.139 7.60473 0.563201
149 1 9.69535 7.6531 5.41856
152 1 10.827 7.13612 6.19421
159 1 9.168 7.09184 8.9772
158 1 11.2905 7.02504 10.2119
164 1 10.4181 7.84684 9.49228
79 1 11.2299 6.74242 11.5198
172 1 10.0074 10.0659 4.56232
173 1 11.0291 10.7553 5.07982
175 1 9.42791 9.05859 5.30838
179 1 9.28849 10.6904 3.58403
182 1 11.2861 9.8532 8.11419
186 1 11.4828 11.032 7.29613
176 1 11.9937 10.5963 6.03074
187 1 10.2157 9.88624 10.5578
190 1 10.9942 11.1135 10.7664
183 1 10.5117 9.3033 9.2034
191 1 9.03 9.33326 11.045
ITEM: TIMESTEP
2000
ITEM: NUMBER OF ATOMS
191
ITEM: BOX BOUNDS pp pp pp
-1.1126800748990225e-01 1.2111268007489924e+01
-1.1126800748990225e-01 1.2111268007489924e+01
-1.1126800748990225e-01 1.2111268007489924e+01
ITEM: ATOMS id type x y z
4 1 1.68519 2.80381 1.50635
12 1 1.26685 0.636068 4.90489
118 1 0.240548 0.385878 4.00111
31 1 2.68796 1.02185 8.78356
32 1 1.37194 0.683071 8.5857
11 1 0.6539 0.742593 7.35654
17 1 2.65138 2.13066 6.13526
13 1 1.35893 1.41517 6.17309
28 1 0.360779 0.853471 9.62005
29 1 0.356282 2.32926 10.2048
30 1 1.46298 2.55674 11.0142
38 1 2.63061 1.91126 10.7733
7 1 0.418789 4.82832 1.45187
6 1 1.00799 3.81087 0.751329
45 1 1.08732 5.76546 2.17729
14 1 2.28388 3.54619 6.60445
22 1 0.888549 3.90991 7.06533
63 1 0.709058 4.73789 8.36804
34 1 1.41713 3.98082 11.661
64 1 1.8796 5.13471 10.6476
66 1 1.86863 4.59583 9.15478
39 1 -0.00710299 8.78088 0.909136
43 1 2.36973 8.1212 0.737339
42 1 1.15681 8.12858 1.66205
54 1 2.42908 6.54519 5.55953
50 1 2.06106 8.82852 3.92286
52 1 0.875136 6.36624 5.63809
40 1 1.03888 6.5822 3.25198
60 1 2.49509 7.94593 5.05959
53 1 0.226875 6.24947 4.37183
41 1 1.4814 7.86645 2.9858
108 1 1.47971 8.49964 8.60607
67 1 1.72605 7.03903 8.40681
71 1 0.76455 6.16492 8.03264
59 1 0.165231 6.61387 6.80578
109 1 0.342527 9.0489 8.10139
77 1 2.03451 6.39362 11.3131
76 1 1.87498 7.72473 11.6223
75 1 1.26213 8.80493 11.0233
89 1 1.60265 10.5755 0.697045
84 1 1.37144 10.485 2.10636
80 1 0.781764 9.66603 -0.15483
83 1 2.18641 9.9995 3.21246
21 1 1.92353 11.6185 5.09146
96 1 1.13832 10.5216 5.50132
107 1 1.90657 9.1271 9.82055
3 1 5.15871 1.3857 2.01035
1 1 3.89807 1.77526 1.98391
5 1 2.95396 2.74252 2.24044
16 1 4.17448 0.0534383 5.45892
18 1 3.87106 1.47968 5.81336
10 1 5.08947 1.97971 6.33722
24 1 5.59336 2.39138 8.62805
26 1 5.78247 0.820964 8.82573
9 1 5.73612 2.85257 7.2861
25 1 3.34659 2.03609 9.50418
36 1 2.90808 0.736802 11.5388
48 1 4.13917 4.94707 0.520797
44 1 5.49787 5.27726 2.81452
46 1 4.39776 4.83479 1.97302
8 1 3.42727 3.92567 2.62178
56 1 5.08277 5.70696 5.602
51 1 3.54414 5.74804 5.90893
70 1 3.11737 5.12458 8.52413
57 1 3.13216 4.67024 7.02391
78 1 4.94214 4.71303 11.5757
68 1 4.21443 4.455 9.29669
69 1 4.83228 5.18327 10.3417
27 1 4.31927 2.98866 9.23541
37 1 5.79714 3.61817 11.6462
47 1 4.80725 7.85064 2.50565
82 1 4.58447 8.61115 1.40114
90 1 3.38921 9.00744 0.693576
49 1 5.6718 6.68222 2.88409
92 1 4.61588 8.72239 3.70756
55 1 5.72007 7.04585 5.60735
73 1 4.14881 7.78582 8.615
62 1 5.46438 7.53255 8.02653
61 1 5.71241 8.01086 6.69466
65 1 3.18796 6.66496 8.49954
72 1 5.34729 6.50588 10.0886
81 1 5.38383 7.74829 10.9346
88 1 3.59982 11.2855 1.92337
85 1 3.01302 10.7136 0.454425
91 1 5.63778 9.41505 0.996956
94 1 5.56588 11.9125 5.3464
97 1 5.63144 10.4975 5.23756
20 1 3.24778 11.6309 4.58876
87 1 3.21882 10.9832 3.33497
95 1 5.71428 9.77804 3.96014
93 1 5.33603 9.81743 6.49759
100 1 5.2276 10.7414 7.70746
101 1 5.38145 9.91423 8.81215
33 1 3.52197 11.9983 8.97458
106 1 4.80527 12.1287 8.28253
98 1 3.2887 11.088 10.1925
103 1 3.29313 11.5664 11.4715
99 1 3.24197 9.63903 9.96483
86 1 5.88134 10.022 11.9883
102 1 4.23451 9.09148 9.19398
114 1 8.84609 1.89904 0.435805
2 1 6.2554 1.34507 2.72899
15 1 6.91546 0.17633 4.9452
19 1 6.96732 0.674447 3.63016
121 1 8.0951 -0.02157 5.639
123 1 8.97371 1.03348 5.38302
129 1 8.30839 0.491115 9.44535
130 1 8.19763 2.55347 11.5449
137 1 6.83925 0.481588 9.88144
134 1 6.76973 2.70381 11.1224
147 1 7.7294 4.51435 2.27589
139 1 8.98407 5.16934 2.05231
145 1 7.5919 5.91628 0.0588326
141 1 6.66974 4.54933 3.24621
150 1 8.23136 3.82153 4.84486
156 1 6.91986 4.43478 4.61221
58 1 6.008 4.53086 5.7542
151 1 8.58335 5.25864 7.05877
166 1 7.53547 4.55844 7.67836
23 1 6.36329 4.0486 7.09859
167 1 7.66939 3.96904 9.00427
165 1 8.67044 4.36663 9.89671
35 1 6.71688 2.96194 9.4694
171 1 7.58445 8.02622 1.35529
140 1 7.54698 7.3464 -0.01361
142 1 7.99513 7.29293 2.52718
144 1 6.90054 7.16183 3.47021
148 1 7.03263 6.99258 4.93484
154 1 8.27193 6.96897 5.436
153 1 8.44071 6.57213 6.75582
162 1 8.54117 7.5764 7.70467
184 1 8.41471 9.03939 7.59616
74 1 6.40207 6.93464 9.06444
159 1 9.01402 7.04577 9.09015
188 1 7.76936 8.24587 11.0016
160 1 7.73677 7.26448 9.76512
110 1 6.37501 8.99691 10.8672
169 1 6.83002 9.14722 1.65124
174 1 7.99355 10.7236 3.10718
170 1 6.84357 9.83307 2.9293
177 1 9.03444 9.73051 6.38665
178 1 8.77582 11.1074 6.30715
180 1 7.89057 9.95463 8.77202
181 1 8.50273 11.2263 8.73884
104 1 6.64835 9.69332 9.55133
191 1 8.90937 9.4713 10.9182
115 1 10.8359 1.44974 2.14605
112 1 9.92851 1.476 1.07982
116 1 12.0861 0.897338 2.69241
111 1 10.2449 2.07876 3.44748
126 1 11.1815 0.163791 4.58332
120 1 10.1668 1.13457 4.51966
127 1 10.2376 0.576468 7.94613
189 1 11.602 0.139599 7.43256
131 1 9.48163 1.33328 9.01026
135 1 10.0611 2.55245 9.85144
119 1 10.0339 4.78683 1.15222
117 1 11.2418 4.63673 1.80039
146 1 11.0224 4.50336 3.2167
124 1 9.71743 3.70122 5.03754
128 1 10.472 3.32331 3.82
157 1 11.1488 5.8254 3.8961
161 1 10.4551 5.0955 8.55851
155 1 9.85343 4.70582 7.13799
125 1 10.543 4.0852 6.13503
122 1 11.8683 3.77064 6.30417
133 1 11.6487 4.37059 8.89285
163 1 9.35312 5.57657 9.30776
136 1 9.31399 3.33763 10.8242
113 1 9.86426 4.36702 12.0914
132 1 11.4208 3.01213 9.6048
143 1 9.08508 6.43264 2.84782
168 1 11.0814 8.03677 0.871419
149 1 9.36273 7.66237 4.75911
138 1 9.97362 6.7666 3.82237
152 1 11.2938 7.46826 6.72173
158 1 11.1992 7.47451 10.4868
164 1 10.4776 7.8629 9.30058
79 1 10.6962 7.43175 11.889
172 1 10.1297 10.1144 4.34296
173 1 11.1602 10.9562 4.80072
179 1 9.3712 10.6555 3.32248
175 1 9.60947 9.15337 5.15242
176 1 11.9865 10.5951 5.80392
182 1 11.4832 9.85284 8.13682
186 1 11.6272 10.9489 7.1437
185 1 9.37391 11.5671 7.58813
187 1 10.1143 10.0069 10.2164
190 1 10.7704 11.154 10.501
105 1 11.671 12.1168 10.1012
183 1 10.5328 9.35553 9.07499
ITEM: TIMESTEP
3000
ITEM: NUMBER OF ATOMS
191
ITEM: BOX BOUNDS pp pp pp
-2.3642848421394394e-01 1.2236428484213992e+01
-2.3642848421394394e-01 1.2236428484213992e+01
-2.3642848421394394e-01 1.2236428484213992e+01
ITEM: ATOMS id type x y z
116 1 -0.108635 1.29096 2.49024
4 1 1.69904 2.79648 1.41502
12 1 1.09782 0.391869 5.08794
118 1 0.188722 0.701243 3.88589
13 1 1.31533 1.19704 6.27105
32 1 1.30232 0.803778 8.71232
11 1 0.561772 0.779997 7.46855
17 1 2.47722 2.10891 6.00807
31 1 2.75899 0.913169 8.98073
28 1 0.370109 0.940463 9.86867
29 1 0.130577 2.22451 10.4395
30 1 1.32772 2.60551 11.1766
38 1 2.52187 1.91103 11.0399
45 1 0.614391 5.36041 2.29089
6 1 0.787294 3.66317 0.737802
7 1 -0.0105601 4.52529 1.44356
14 1 2.20525 3.67131 6.34045
63 1 0.401037 5.07535 8.86967
22 1 0.70955 3.84696 6.24862
57 1 3.03548 4.70126 6.9305
34 1 1.22529 3.85651 11.8484
64 1 1.62329 4.84614 10.9242
66 1 1.70921 4.69244 9.45317
43 1 2.45306 8.12284 0.624047
42 1 1.30999 8.07324 1.61533
39 1 0.0487585 8.51141 0.655259
54 1 2.07954 6.72841 5.69588
50 1 2.00636 8.60001 3.78728
53 1 -0.164624 6.17623 4.46305
40 1 0.577128 6.4316 3.16654
60 1 2.42137 7.98786 5.05912
52 1 0.562959 6.41413 5.69873
41 1 1.03527 7.92294 2.9592
108 1 1.37721 8.62947 8.93698
67 1 1.56488 7.26953 8.68947
71 1 0.56522 6.34387 8.2413
59 1 -0.0714481 6.55877 7.01878
77 1 1.97563 6.22594 11.4039
76 1 2.06799 7.6092 11.8595
75 1 1.38878 8.74874 11.227
89 1 1.52765 10.3938 0.582514
84 1 1.32918 10.3493 2.03269
83 1 2.19225 10.021 3.1203
21 1 1.8141 11.6475 5.07718
96 1 1.04162 10.6395 5.60015
109 1 0.492082 9.34591 8.24078
107 1 1.92789 9.19996 10.0719
80 1 0.710867 9.58 12.1942
3 1 4.08844 0.180695 1.79261
1 1 3.43842 1.18512 0.896403
2 1 5.37002 0.418056 2.81282
5 1 2.99153 2.42099 1.4664
16 1 4.19287 -0.230002 5.43697
18 1 3.82208 1.16721 5.95291
10 1 5.05694 1.95037 6.39488
24 1 5.64287 2.3433 8.90934
26 1 5.9483 0.815362 9.0612
9 1 5.66075 2.76267 7.32867
25 1 3.21643 2.0236 9.65658
36 1 3.08508 0.62395 12.1697
48 1 4.45026 4.99982 0.203236
8 1 3.71104 3.51626 2.17129
46 1 4.19047 4.86763 1.65933
44 1 5.25112 5.45053 2.57369
58 1 5.77223 4.69926 5.56572
56 1 4.85724 5.82619 5.63078
51 1 3.4744 5.88433 5.94152
70 1 3.06702 5.13447 8.49962
78 1 4.97437 4.43723 11.5975
68 1 4.23419 4.51118 9.35181
69 1 5.13653 5.19628 10.2919
37 1 5.82092 3.27658 11.6669
27 1 4.23507 3.02282 9.3923
47 1 4.78077 8.04775 2.48951
82 1 4.72152 8.65821 1.17484
49 1 5.417 6.83499 2.92715
55 1 5.62347 7.15047 5.71527
65 1 3.04617 6.85719 8.5784
62 1 5.40563 7.59305 7.95043
61 1 5.31181 8.20252 6.58204
73 1 4.00277 7.9061 8.59763
81 1 5.75788 7.69847 11.0001
72 1 5.71791 6.60864 10.0938
88 1 3.58942 11.3709 2.05706
85 1 2.95573 10.6584 0.487112
91 1 5.89939 9.31158 0.765567
90 1 3.477 9.19435 0.816075
94 1 5.56886 11.6934 5.33557
97 1 5.80591 10.3867 5.3106
87 1 3.19077 10.9184 3.34905
20 1 3.1672 11.4841 4.66623
92 1 4.95618 9.20484 3.4713
93 1 5.33016 9.77171 6.45738
100 1 5.1375 10.8879 7.94889
106 1 4.91969 12.1447 8.4001
101 1 5.49001 9.93834 8.98587
98 1 3.36831 11.1993 10.2936
99 1 3.21837 9.76153 9.97034
103 1 3.11981 11.6707 11.7315
33 1 3.68915 12.2322 9.30185
102 1 4.28849 9.17986 9.269
15 1 6.64717 -0.115888 4.92176
123 1 8.96194 0.419349 4.37629
19 1 6.4343 0.618503 3.64119
121 1 8.03073 -0.24946 5.22013
129 1 8.64906 0.350043 9.16805
137 1 7.21823 0.446856 9.41541
134 1 7.09486 2.93459 11.1222
147 1 7.45284 4.35136 2.20447
139 1 8.76954 5.00158 2.05484
141 1 6.36876 4.48063 3.14237
150 1 7.97541 3.79094 4.94175
156 1 6.66774 4.23666 4.53282
151 1 8.49476 5.29224 7.20807
166 1 7.40325 4.40055 7.69545
23 1 6.1713 4.07369 6.93793
165 1 8.58612 4.80868 9.97119
35 1 6.82703 3.02135 9.74979
136 1 8.99827 4.26402 11.2919
130 1 8.25116 3.03607 11.8165
167 1 7.55852 4.09062 9.12855
171 1 7.80968 7.83994 1.239
140 1 8.53128 7.65966 0.0692641
142 1 7.82781 7.11602 2.57215
169 1 7.04006 8.92372 1.58666
143 1 8.95903 6.28347 2.65264
144 1 6.67969 7.19188 3.49154
148 1 6.8173 7.30857 4.8843
154 1 8.11778 7.10627 5.42931
153 1 8.39484 6.61325 6.72019
162 1 8.80972 7.74503 7.63695
74 1 6.5725 7.03636 9.06182
184 1 8.47872 9.09507 7.5371
188 1 8.12908 8.66736 11.0615
160 1 7.78749 7.48609 9.74837
170 1 7.13736 9.55505 2.85574
174 1 8.35392 10.3718 2.87808
95 1 6.10802 9.83501 3.91496
178 1 8.58406 11.3377 6.21198
181 1 8.81481 11.4105 8.58019
180 1 7.97177 10.1402 8.70612
177 1 8.83581 9.74385 6.24512
104 1 6.78625 9.86048 9.56232
86 1 6.12735 9.92555 12.0751
110 1 6.5696 9.19058 10.9185
115 1 10.9396 1.8233 2.13691
112 1 10.1659 1.92959 0.924238
114 1 9.20499 2.2789 0.0232758
111 1 10.3456 1.97019 3.36848
120 1 10.2755 0.764785 4.14011
126 1 11.49 0.0121926 4.29715
127 1 10.3415 0.466492 7.60957
131 1 9.84788 1.18394 8.92247
189 1 11.7422 0.0415199 7.61259
135 1 10.5001 2.16812 9.60146
119 1 9.88135 4.73633 1.13251
117 1 11.0815 4.4311 1.86401
113 1 9.37284 5.14882 -0.119751
146 1 10.9298 4.44999 3.4826
124 1 9.36167 3.62363 5.20007
128 1 10.1586 3.33984 3.99223
157 1 10.966 5.69626 4.17209
161 1 10.5189 4.87059 8.6788
155 1 9.89813 4.79876 7.27535
122 1 11.882 3.65103 6.29318
125 1 10.3671 3.93743 6.23898
163 1 9.41478 5.74639 9.43661
132 1 11.5705 3.09463 9.88894
133 1 11.6973 4.40261 9.23907
168 1 11.6377 7.40884 0.446327
145 1 9.38348 6.62256 -0.277837
138 1 9.83721 6.65127 3.72814
149 1 9.39152 7.55468 4.76633
152 1 11.2064 7.24528 6.97034
158 1 11.2067 7.48218 10.4881
164 1 10.446 8.09972 9.40799
79 1 10.7054 7.23511 11.8509
159 1 9.1444 7.18613 9.11618
172 1 10.3701 10.2244 4.29036
173 1 11.3207 11.0253 4.85012
179 1 9.63968 10.467 3.24079
175 1 9.75438 9.20009 5.15394
182 1 11.774 10.1308 8.47966
186 1 11.7439 11.1056 7.44888
185 1 9.35451 11.7927 7.19509
176 1 12.2316 10.7868 6.16666
187 1 10.2984 10.2164 10.4749
190 1 11.1894 11.2611 10.7428
183 1 10.7075 9.54588 9.24137
191 1 9.14168 9.70473 10.9259
105 1 12.0972 12.1604 10.3163
ITEM: TIMESTEP
4000
ITEM: NUMBER OF ATOMS
191
ITEM: BOX BOUNDS pp pp pp
-1.6203898698353336e-01 1.2162038986983566e+01
-1.6203898698353336e-01 1.2162038986983566e+01
-1.6203898698353336e-01 1.2162038986983566e+01
ITEM: ATOMS id type x y z
4 1 1.07866 2.31226 1.67844
116 1 0.159035 1.68186 2.46966
5 1 2.5575 2.41141 1.85458
12 1 1.24602 0.648773 4.80864
118 1 0.190877 1.0949 3.9198
31 1 2.72681 0.783726 8.87257
32 1 1.33228 0.557072 8.62454
11 1 0.758984 0.532972 7.19128
17 1 2.71061 2.00317 6.14404
13 1 1.43764 1.25227 6.11064
28 1 0.282166 0.820499 9.60425
29 1 0.192774 2.1713 10.0324
30 1 1.34923 2.54951 10.8532
38 1 2.5938 1.8217 10.908
45 1 0.858196 5.32446 2.05388
6 1 0.620775 3.40751 0.696236
7 1 0.0237368 4.4811 1.32258
14 1 2.38491 3.43454 6.697
63 1 0.722277 5.19132 8.89123
22 1 0.721081 3.44353 6.3814
34 1 1.29474 3.75847 11.7085
64 1 1.69342 5.00788 11.0844
66 1 1.82859 4.92223 9.62564
43 1 2.17552 8.18357 0.771162
42 1 1.15801 8.29427 1.7639
39 1 -0.0170543 8.76407 1.08772
41 1 1.29148 7.66336 3.08333
54 1 2.57198 6.48617 5.43029
50 1 1.97513 8.61187 3.97137
60 1 2.64766 7.85421 5.01172
40 1 0.86109 6.364 3.06265
52 1 0.878649 6.2548 5.52409
53 1 0.0987978 6.12781 4.21889
108 1 1.72221 8.63365 8.7194
67 1 2.00326 7.2677 8.4236
71 1 0.956779 6.30048 8.00881
59 1 0.260887 6.60629 6.7929
75 1 1.36786 8.92258 11.1654
76 1 1.80865 7.7282 11.8104
77 1 1.95502 6.33975 11.6932
89 1 1.36263 10.6369 0.943603
84 1 1.20097 10.3469 2.43666
85 1 2.85167 10.8982 0.654901
80 1 0.544014 9.75372 0.0956319
83 1 2.16711 9.878 3.35801
21 1 1.77923 11.6432 4.79926
96 1 1.05378 10.639 5.37586
109 1 0.742455 9.30665 7.87733
107 1 2.01696 9.25931 10.0228
3 1 4.03304 0.671154 1.92904
1 1 3.22771 1.35704 0.941366
2 1 5.42887 0.870661 2.59147
16 1 4.18741 -0.035121 5.49782
10 1 5.09708 1.88975 6.57197
24 1 5.55534 2.77068 8.95261
9 1 5.811 2.78765 7.40542
26 1 5.65184 0.455919 8.8824
18 1 3.93966 1.26485 6.04508
25 1 3.37577 1.94917 9.65652
36 1 3.04523 0.810251 11.9236
48 1 4.3926 4.40969 0.730943
8 1 3.27268 3.3929 2.62633
46 1 4.28748 4.34227 2.09908
44 1 5.27378 5.17025 2.7724
58 1 5.89632 4.60536 5.81125
56 1 5.00554 5.77329 5.81084
51 1 3.54438 5.54267 6.24842
57 1 2.98756 4.6472 7.09097
70 1 3.1725 5.15723 8.81514
78 1 5.20595 4.10076 11.9952
68 1 4.2286 4.44009 9.74078
69 1 5.1136 4.85825 10.7739
37 1 5.98339 3.0184 11.8278
27 1 4.30137 2.95502 9.47725
47 1 4.70455 7.93566 2.37571
82 1 4.51802 8.6613 1.07754
49 1 5.61181 6.6955 2.69079
55 1 5.78135 7.01979 5.79781
92 1 4.65783 8.86726 3.53352
65 1 3.43059 6.73198 8.52787
62 1 5.83776 7.40173 8.39804
61 1 5.83025 8.08836 6.8636
73 1 4.41591 7.7487 8.88841
102 1 4.45276 9.12031 9.47195
72 1 5.91465 6.10746 10.7533
81 1 6.05066 6.7581 12.0325
88 1 3.52323 11.6528 2.09131
90 1 3.23714 9.13228 0.77912
91 1 5.7174 9.36328 0.732919
94 1 5.45106 11.8141 5.46351
97 1 5.56258 10.2502 5.28233
87 1 3.25846 10.9436 3.33993
20 1 3.25984 11.5568 4.65819
95 1 5.79335 9.55438 3.98288
93 1 5.60782 9.5535 6.71298
100 1 5.27184 10.5953 7.74402
106 1 4.72603 11.8419 8.4301
101 1 5.62328 9.94348 8.97771
98 1 3.28088 11.1485 10.3522
103 1 3.15216 11.7799 11.7012
99 1 3.20032 9.78729 10.0526
33 1 3.4084 11.9286 9.13012
15 1 6.58798 -0.0177295 4.76618
19 1 6.28728 0.795764 3.7084
123 1 8.77689 0.892918 4.78853
121 1 7.89233 -0.269574 5.10731
129 1 8.37089 0.492902 8.9409
134 1 7.04845 2.81696 10.9687
137 1 6.98689 0.687983 9.19347
139 1 8.70707 5.02503 2.22085
147 1 7.59096 4.34034 2.59697
141 1 6.3788 4.45543 3.37215
150 1 8.04601 3.71443 5.04761
156 1 6.56446 4.10984 4.66982
151 1 8.35041 5.48018 7.20175
166 1 7.24783 4.83359 7.90038
23 1 6.27545 4.11122 7.06843
165 1 8.64072 4.89898 9.78916
130 1 8.37496 3.1779 11.4688
136 1 8.82848 4.50413 11.1638
35 1 6.77844 3.18326 9.73025
167 1 7.52098 4.32845 9.17428
171 1 7.94115 8.34709 1.46666
140 1 8.42583 7.70576 0.119977
142 1 8.0541 7.40118 2.5374
143 1 9.05615 6.48943 2.83349
144 1 6.82682 7.134 3.39179
148 1 6.90381 7.06504 4.8542
154 1 8.21228 7.17589 5.44208
153 1 8.43033 6.72768 6.7074
162 1 8.90567 7.80221 7.66394
188 1 8.12471 8.39547 10.9687
160 1 7.99077 7.5384 9.74798
74 1 6.66021 6.86331 9.60803
169 1 6.85946 9.39049 1.49172
170 1 6.65851 9.87119 2.90088
174 1 7.85724 10.6799 3.02513
180 1 8.03353 10.1041 8.46259
181 1 8.56553 11.5075 8.3691
177 1 8.71101 9.79175 5.98402
178 1 8.44665 11.1844 5.97122
184 1 8.61845 9.14113 7.39241
104 1 6.9362 9.85513 9.47293
110 1 6.90942 9.32946 10.7252
86 1 6.03143 9.68967 11.7262
115 1 11.0393 1.87506 1.98425
112 1 10.2401 1.94994 0.767069
114 1 9.11409 2.30542 0.107819
111 1 10.2596 2.12672 3.15757
120 1 9.93728 1.00582 3.98651
126 1 11.2758 0.334836 4.27509
127 1 10.2171 0.617758 7.37252
189 1 11.6368 0.0304702 7.33538
131 1 9.67398 1.28758 8.49587
135 1 10.3614 2.44505 9.09577
105 1 11.8229 -0.0990942 10.2544
119 1 9.7428 4.79862 1.2325
117 1 11.0269 4.40432 1.81071
113 1 9.42988 5.24774 0.00560078
146 1 11.035 4.42388 3.29195
124 1 9.5112 3.55955 5.07874
128 1 10.2359 3.36243 3.81496
157 1 11.0814 5.85564 3.95105
161 1 10.5264 5.05703 8.47242
155 1 9.77851 4.59162 7.20401
125 1 10.3725 3.68432 6.19643
133 1 11.8156 4.42729 9.00065
122 1 11.7538 3.33031 6.16613
163 1 9.53513 5.84665 9.10137
132 1 11.5804 3.06503 9.46436
168 1 11.2102 8.05124 0.704617
145 1 9.55153 6.68612 0.0382299
138 1 9.95075 6.54576 3.85843
149 1 9.42151 7.62996 4.78388
175 1 9.62313 9.05491 5.07421
152 1 11.4068 7.29435 6.65907
158 1 11.0761 7.47061 10.6731
164 1 10.5273 7.99345 9.49905
79 1 10.7679 7.2903 11.9892
159 1 9.22926 7.25886 8.91714
172 1 10.1126 10.1433 4.23005
173 1 11.1005 11.0048 4.62439
179 1 9.15907 10.7108 3.34023
176 1 11.9714 10.6559 5.79847
182 1 11.7544 9.95535 8.0806
186 1 11.5315 10.9009 7.09826
185 1 9.22241 11.783 7.05563
187 1 10.2671 10.2752 10.1723
190 1 10.6189 11.6201 10.2075
191 1 9.24349 9.68779 10.8404
183 1 10.7972 9.52512 9.03594
ITEM: TIMESTEP
5000
ITEM: NUMBER OF ATOMS
191
ITEM: BOX BOUNDS pp pp pp
-5.1816055780519239e-02 1.2051816055780574e+01
-5.1816055780519239e-02 1.2051816055780574e+01
-5.1816055780519239e-02 1.2051816055780574e+01
ITEM: ATOMS id type x y z
4 1 1.43316 2.55017 1.82777
116 1 0.504197 1.61017 2.35078
5 1 2.83893 2.20508 1.87486
12 1 1.40229 0.635075 4.78078
118 1 0.497677 0.751727 3.6751
17 1 2.76138 2.09261 6.1403
32 1 1.47649 0.788208 8.57049
11 1 0.677344 0.68336 7.2715
31 1 2.87836 0.947225 8.85603
13 1 1.56097 1.26175 6.00446
28 1 0.71961 0.875592 9.79218
29 1 0.521055 2.23791 10.2475
30 1 1.63357 2.70236 11.027
38 1 2.79937 2.09955 10.8741
45 1 1.12143 5.6963 2.22235
6 1 0.949814 3.71371 0.979102
7 1 0.290029 4.77075 1.59404
14 1 2.30431 3.57257 6.54884
63 1 0.659026 5.03636 8.74434
22 1 0.958551 3.69268 6.13843
34 1 1.44303 3.79577 11.7924
64 1 1.59916 5.02852 11.0123
66 1 1.83105 4.81449 9.62367
43 1 2.11555 8.0657 0.791187
42 1 1.13278 8.28361 1.74928
39 1 0.0637824 8.90082 1.09834
54 1 2.41445 6.5396 5.43427
50 1 2.20755 8.61473 3.67546
60 1 2.64874 7.95129 4.85341
40 1 0.800502 6.67903 3.30304
52 1 0.918677 6.32009 5.5952
53 1 0.212606 6.19616 4.47488
41 1 1.30998 7.87977 2.99102
108 1 1.45633 8.45814 8.78712
67 1 1.86668 7.14969 8.49604
71 1 0.890773 6.20374 7.98307
59 1 0.244589 6.64919 6.73499
77 1 1.25486 6.32951 11.349
76 1 1.62898 7.71368 11.6559
75 1 1.19908 8.97729 11.1066
89 1 1.57699 10.701 0.96986
84 1 1.22484 10.4105 2.35982
80 1 0.762877 9.75295 0.103036
83 1 2.26052 9.97066 3.23019
21 1 2.01598 11.4344 4.79324
96 1 1.29257 10.3998 5.35236
109 1 0.508586 9.17536 8.04596
107 1 1.89586 9.20904 9.90159
105 1 0.212014 11.8118 10.3406
3 1 4.47851 0.377453 1.65371
1 1 3.42567 1.22128 0.961993
2 1 5.68213 0.643017 2.32338
16 1 4.34904 0.150491 5.26318
18 1 3.98584 1.4497 5.86349
10 1 5.17082 1.89319 6.56994
9 1 5.88062 2.73661 7.44
24 1 5.6976 2.62904 8.84914
25 1 3.35593 2.08849 9.53199
36 1 3.23504 0.965284 11.711
48 1 4.30679 4.72134 0.805652
8 1 3.57433 3.25686 2.62925
46 1 4.15709 4.61494 2.18442
44 1 5.22401 5.27603 2.86227
56 1 4.94609 5.69561 5.8785
58 1 5.87793 4.55963 5.82172
51 1 3.48527 5.62572 6.16823
70 1 3.2484 5.16725 8.75617
57 1 3.05969 4.67749 7.24804
78 1 5.0775 4.25872 11.8402
68 1 4.19116 4.34809 9.55165
69 1 4.89532 4.92579 10.6446
27 1 4.37743 3.04844 9.35142
37 1 5.98701 3.24166 11.9879
47 1 4.6872 7.76285 2.5757
82 1 4.52195 8.51063 1.34686
49 1 5.3812 6.64943 2.85596
90 1 3.33117 9.01815 0.706102
55 1 5.65969 6.98601 5.91978
92 1 4.66757 8.68752 3.6745
65 1 3.13028 6.69971 8.57582
62 1 5.43473 7.25307 8.29468
61 1 5.60701 7.95287 6.9339
73 1 4.15149 7.69864 8.77891
72 1 5.70442 6.19759 10.4822
102 1 4.17501 8.93845 9.37214
81 1 5.56043 6.86654 11.7995
88 1 3.82492 11.2132 1.81348
91 1 5.66184 9.28316 0.892307
85 1 3.09808 10.6515 0.53788
94 1 5.63985 11.6813 5.44176
97 1 5.86336 10.1903 5.39091
87 1 3.55522 10.761 3.15475
20 1 3.47164 11.4047 4.51347
95 1 5.87528 9.4867 4.06261
93 1 5.44555 9.46894 6.5657
100 1 5.20045 10.3138 7.71283
106 1 4.91574 11.6707 8.25227
101 1 5.37064 9.65131 8.89458
33 1 3.64156 11.8628 9.02364
98 1 3.34755 11.0896 10.1836
103 1 3.1394 11.657 11.4717
99 1 3.17981 9.69792 9.89032
86 1 5.66765 9.876 11.7227
15 1 6.71009 0.320908 4.71224
19 1 6.26862 0.882951 3.49898
121 1 7.99553 -0.021226 5.21105
26 1 6.0575 0.190613 8.96588
129 1 8.55719 0.414442 9.31378
137 1 7.19585 0.597789 9.49829
134 1 6.99553 2.88625 11.1061
139 1 8.72799 5.20233 2.215
147 1 7.49512 4.57931 2.2419
141 1 6.39469 4.46775 3.22576
150 1 8.029 3.95994 4.7541
156 1 6.66452 4.28879 4.64778
151 1 8.45647 5.23797 6.99016
166 1 7.3792 4.69256 7.79106
23 1 6.45463 3.92114 7.00536
165 1 8.56273 4.92731 9.95694
167 1 7.47592 4.31421 9.15552
130 1 8.57094 2.98982 11.4945
35 1 6.76983 3.2685 9.76358
136 1 8.94978 4.48528 11.1587
171 1 7.49966 8.00749 1.47965
140 1 8.1624 7.70089 0.238426
142 1 7.71272 7.33436 2.71415
143 1 8.8787 6.48731 2.88049
144 1 6.60285 6.95575 3.5162
148 1 6.763 7.08867 4.98525
154 1 8.09333 7.17699 5.49307
153 1 8.43128 6.62494 6.79342
162 1 8.70608 7.73945 7.62366
159 1 9.00774 7.34538 8.99375
188 1 7.90936 8.70641 11.0902
160 1 7.72581 7.70638 9.81782
74 1 6.33338 7.08886 9.43863
169 1 6.66703 9.16254 1.78448
174 1 8.10366 10.6108 2.9388
170 1 6.84437 9.94083 2.95905
180 1 8.01476 9.96278 8.48704
181 1 8.68945 11.2364 8.5012
177 1 8.72533 9.85452 6.10444
178 1 8.61879 11.1882 6.1232
184 1 8.30864 9.1389 7.35699
104 1 6.69014 9.80786 9.29183
110 1 6.66417 9.62339 10.7673
115 1 11.1681 1.86452 2.09406
112 1 10.4358 2.14215 0.911955
114 1 9.30935 2.2706 0.277184
126 1 11.3798 -0.0242474 3.84324
120 1 10.2932 0.836697 3.92805
111 1 10.5151 2.12836 3.26696
123 1 9.03973 0.742441 4.52179
127 1 10.1503 0.675104 7.52427
189 1 11.4159 0.160496 7.19726
131 1 9.66856 1.25635 8.84915
135 1 10.2336 2.27445 9.61738
119 1 9.86588 4.84852 1.26844
117 1 11.0831 4.72425 1.89098
113 1 9.49019 5.39149 0.00703003
146 1 10.9037 4.6463 3.23001
124 1 9.46597 3.73744 4.98202
128 1 10.3393 3.49702 3.83056
157 1 10.9436 5.86312 4.082
161 1 10.38 4.95292 8.44068
155 1 9.71994 4.52926 7.2256
125 1 10.3255 3.80799 6.15857
133 1 11.5622 4.33566 8.94469
122 1 11.7117 3.54137 6.29163
163 1 9.5123 5.69749 9.19652
132 1 11.5051 3.05313 9.82677
168 1 10.8574 8.31417 0.910047
145 1 9.28719 6.78069 0.00479755
138 1 9.80725 6.73556 3.9995
149 1 9.16761 7.66992 4.80834
152 1 10.9599 7.08918 6.6485
158 1 10.8726 7.85926 10.6001
164 1 10.3722 8.1236 9.27403
79 1 10.5175 7.56942 12.0207
172 1 10.1806 9.98042 4.09761
173 1 11.2316 10.8585 4.60813
175 1 9.43494 9.0993 5.00455
176 1 11.9751 10.5139 5.65499
179 1 9.39942 10.5765 3.025
182 1 11.336 9.85408 7.97965
186 1 11.5143 10.8554 6.95062
185 1 9.1412 11.8583 7.23276
183 1 10.3276 9.49504 8.96677
187 1 10.2214 10.3973 10.1744
190 1 11.2876 11.0075 10.7596
191 1 9.06429 9.72361 10.9191
ITEM: TIMESTEP
6000
ITEM: NUMBER OF ATOMS
191
ITEM: BOX BOUNDS pp pp pp
-9.3726422814195978e-02 1.2093726422814235e+01
-9.3726422814195978e-02 1.2093726422814235e+01
-9.3726422814195978e-02 1.2093726422814235e+01
ITEM: ATOMS id type x y z
4 1 1.25704 2.54677 1.78592
116 1 0.317231 1.81094 2.48255
5 1 2.71238 2.40026 1.81757
12 1 1.39824 0.853814 4.56413
118 1 0.294668 0.878137 3.65885
13 1 1.30178 1.44085 5.93689
31 1 2.83212 0.863648 8.74118
32 1 1.41425 0.94208 8.33159
11 1 0.693644 0.934361 7.06357
17 1 2.64766 2.23758 6.14467
28 1 0.497194 0.908831 9.49635
29 1 0.377343 2.27846 9.96644
30 1 1.39163 2.53138 10.9612
38 1 2.67807 1.9533 11.0757
45 1 0.923577 5.51018 2.33324
6 1 0.899812 3.60566 0.909665
7 1 0.124493 4.63361 1.6133