ITEM: TIMESTEP
1000
ITEM: NUMBER OF ATOMS
191
ITEM: BOX BOUNDS pp pp pp
0.0000000000000000e+00 1.2000000000000000e+01
0.0000000000000000e+00 1.2000000000000000e+01
0.0000000000000000e+00 1.2000000000000000e+01
ITEM: ATOMS id type x y z
12 1 1.20509 0.848646 4.8824
1 1 2.45416 2.21262 3.44646
118 1 0.0568909 0.931156 4.21542
31 1 2.7963 1.20012 8.59879
32 1 1.33362 1.11411 8.47168
11 1 0.524598 1.20419 7.34151
17 1 2.71238 2.40746 6.16634
13 1 1.38231 1.67759 6.10224
28 1 0.600435 1.06936 9.68613
29 1 0.380463 2.49177 10.0643
30 1 1.54051 2.88833 10.6729
38 1 2.76966 2.1392 10.5977
4 1 2.18611 3.42645 1.49308
6 1 1.37529 4.1638 0.681185
7 1 0.316389 4.7799 1.23673
5 1 2.72351 3.38718 2.80547
53 1 0.358511 5.83537 4.1516
14 1 2.48962 3.77126 6.47623
22 1 1.04066 4.12647 6.92577
63 1 0.861504 4.89394 8.19573
34 1 1.60511 4.1806 11.3394
64 1 1.84804 5.17285 10.4568
66 1 1.97643 4.87993 9.13738
39 1 0.181589 8.50532 0.712513
43 1 2.65505 8.15867 0.868042
42 1 1.41328 7.99508 1.5577
45 1 0.410238 6.0196 1.6437
40 1 0.607622 6.50916 2.98891
41 1 1.37971 7.70322 2.91852
54 1 2.3679 6.52629 5.21292
50 1 2.14686 8.46843 3.69532
52 1 1.04645 6.21113 5.25484
60 1 2.43505 7.90596 4.88676
59 1 0.319578 6.54721 6.41356
67 1 1.82448 7.31926 8.10585
71 1 0.824954 6.39916 7.65354
108 1 1.50378 8.72625 8.5489
75 1 1.63839 8.73584 10.9
76 1 2.39605 7.75422 11.4558
77 1 2.36185 6.3648 11.1126
89 1 1.68557 10.4378 0.778156
84 1 1.26087 10.293 2.26055
96 1 1.39937 10.5244 5.80047
21 1 1.92503 11.6793 5.0829
83 1 1.97272 9.86486 3.45811
109 1 0.460584 9.13924 7.92927
107 1 1.96788 9.23301 9.68906
80 1 0.964113 9.47731 11.8748
3 1 3.46182 1.23958 3.5408
16 1 4.12741 0.164967 5.50129
2 1 4.94593 1.47411 3.18049
9 1 5.79569 2.82726 7.153
24 1 5.70492 2.43076 8.65892
26 1 5.83625 0.933983 8.58776
10 1 5.33926 2.06308 6.16372
18 1 3.95423 1.52412 6.0336
25 1 3.47206 2.22466 9.36298
36 1 3.1563 1.05003 11.3995
48 1 4.33373 4.65548 0.709691
44 1 5.99016 5.22315 2.44868
46 1 4.83482 4.57961 2.03733
8 1 3.91788 4.06314 2.96916
58 1 5.89245 4.77236 5.62939
56 1 5.05263 5.94244 5.47293
51 1 3.61934 5.79543 5.77172
70 1 3.40603 5.25056 8.37877
57 1 3.29911 4.88631 6.83742
78 1 5.12797 4.29346 11.5245
68 1 4.40579 4.42649 9.42396
69 1 5.059 5.21573 10.3426
27 1 4.47806 3.0505 9.22505
47 1 5.19546 7.94796 2.43487
82 1 4.90455 8.78538 1.39948
92 1 5.0144 8.61295 3.70179
55 1 5.95341 7.18716 5.53858
73 1 4.19161 7.74413 8.55678
62 1 5.53684 7.49362 7.95057
65 1 3.19209 6.8109 8.4114
61 1 5.63671 8.06901 6.60218
72 1 5.55993 6.5066 10.3029
81 1 5.54413 7.76087 11.0694
88 1 3.49987 11.0428 2.1632
85 1 3.16455 10.4098 1.00517
91 1 5.91697 9.71594 1.04399
90 1 3.67653 9.11918 1.0001
94 1 5.51007 11.7138 5.47563
97 1 5.54044 10.2859 5.25334
87 1 3.11333 10.7168 3.43176
20 1 3.18504 11.8843 4.2963
95 1 5.89847 9.73487 4.04418
93 1 5.64775 9.60237 6.45837
100 1 5.39615 10.4731 7.59658
101 1 5.51693 9.71445 8.84227
106 1 4.93343 11.8978 7.96221
33 1 3.59975 11.9983 8.55921
98 1 3.50555 11.1841 9.68144
103 1 3.22428 11.7935 10.9441
99 1 3.27887 9.79207 9.59418
102 1 4.32834 9.07969 9.01661
114 1 8.60925 1.0636 0.341457
15 1 6.28686 1.03729 5.36838
19 1 6.14573 1.31933 3.9212
121 1 7.76238 0.614062 5.91285
128 1 8.88866 2.97665 3.70562
129 1 8.35478 0.18746 9.37563
130 1 8.26103 2.13424 11.4211
137 1 7.02759 0.504277 9.32774
134 1 6.96563 2.54662 10.8961
35 1 6.87822 2.8466 9.43909
147 1 8.12484 3.78741 2.81579
139 1 8.95702 4.71955 2.11283
141 1 6.86754 4.534 3.29409
150 1 8.14886 4.52859 5.47536
156 1 6.87198 4.6036 4.71775
151 1 8.27125 5.07366 6.80782
166 1 7.22697 4.60737 7.64401
23 1 6.11789 4.13615 6.99852
167 1 7.57641 4.01855 8.90824
165 1 8.33637 4.89564 9.7276
37 1 6.09022 3.28999 11.648
49 1 6.32647 6.66491 2.15676
140 1 7.99375 7.68454 0.383597
142 1 8.58072 7.38481 2.5869
145 1 6.96274 6.67636 0.681379
171 1 8.11027 8.45739 1.63405
144 1 7.31434 7.04926 3.2988
148 1 7.18411 7.1601 4.73754
154 1 8.35935 7.1502 5.53352
153 1 8.1698 6.55922 6.73473
162 1 8.58165 7.49694 7.74916
184 1 8.14193 8.93666 7.51019
188 1 7.99517 8.26872 11.0671
74 1 6.48352 6.90777 9.14608
160 1 7.81743 7.2395 9.89896
169 1 7.09657 9.53003 1.87342
174 1 7.97704 10.9841 3.56656
170 1 6.93637 10.1165 3.21665
177 1 8.34338 9.55504 6.12299
178 1 8.10362 11.1346 6.34415
180 1 7.89147 9.70405 8.60484
181 1 8.60636 10.9521 8.71045
185 1 8.91145 11.4014 7.40967
104 1 6.73251 9.58153 9.41521
110 1 6.49943 9.08283 10.8292
86 1 6.07477 10.1283 11.7812
115 1 10.3233 1.23323 2.44296
116 1 11.6482 0.993539 2.82226
112 1 9.70433 1.22206 1.2498
111 1 9.4857 1.66562 3.53701
126 1 10.9251 0.207048 4.75638
120 1 9.76984 1.11383 4.82804
123 1 9.07273 1.35593 5.95414
127 1 9.85358 0.871564 7.35898
189 1 11.3665 0.497339 7.24559
131 1 9.26943 1.27343 8.8753
135 1 9.92736 2.45712 9.72437
136 1 9.31994 2.91918 10.9834
105 1 11.8296 0.0101488 10.1355
119 1 10.0568 4.12402 1.1601
117 1 11.2913 4.10232 1.87838
157 1 11.3328 4.9189 4.17809
124 1 9.18021 3.70881 5.01453
146 1 11.3855 3.97031 3.30822
138 1 10.2186 5.74187 3.89366
161 1 10.2777 4.94223 8.31128
155 1 9.72347 4.77316 7.05922
133 1 11.4486 4.36918 8.8939
122 1 11.7791 3.7662 6.22739
125 1 10.4313 4.01175 6.05778
163 1 9.44619 5.61201 9.18789
113 1 9.86272 3.82653 11.855
132 1 11.2015 3.12199 9.46298
143 1 9.41135 6.11047 2.82495
168 1 11.139 7.60473 0.563201
149 1 9.69535 7.6531 5.41856
152 1 10.827 7.13612 6.19421
159 1 9.168 7.09184 8.9772
158 1 11.2905 7.02504 10.2119
164 1 10.4181 7.84684 9.49228
79 1 11.2299 6.74242 11.5198
172 1 10.0074 10.0659 4.56232
173 1 11.0291 10.7553 5.07982
175 1 9.42791 9.05859 5.30838
179 1 9.28849 10.6904 3.58403
182 1 11.2861 9.8532 8.11419
186 1 11.4828 11.032 7.29613
176 1 11.9937 10.5963 6.03074
187 1 10.2157 9.88624 10.5578
190 1 10.9942 11.1135 10.7664
183 1 10.5117 9.3033 9.2034
191 1 9.03 9.33326 11.045
ITEM: TIMESTEP
2000
ITEM: NUMBER OF ATOMS
191
ITEM: BOX BOUNDS pp pp pp
-1.1106567846492117e-01 1.2111065678464902e+01
-1.1106567846492117e-01 1.2111065678464902e+01
-1.1106567846492117e-01 1.2111065678464902e+01
ITEM: ATOMS id type x y z
4 1 1.62055 2.77185 1.54667
5 1 2.83674 2.66636 2.33669
12 1 1.27193 0.686241 4.79654
118 1 0.246267 0.329499 3.84153
31 1 2.66492 0.975617 8.70528
32 1 1.22568 0.721679 8.51891
11 1 0.548201 0.773013 7.27824
17 1 2.57582 2.13701 6.08463
13 1 1.36379 1.39303 6.10671
28 1 0.315116 0.934878 9.67897
29 1 0.354536 2.3623 10.1674
30 1 1.43953 2.67124 10.9917
38 1 2.68408 2.02946 10.8449
7 1 0.448722 4.82526 1.50338
6 1 1.08302 3.83043 0.798464
45 1 1.04145 5.79734 2.18507
14 1 2.24837 3.58029 6.52102
22 1 0.916887 3.90836 7.05374
63 1 0.855752 4.76984 8.29826
34 1 1.45773 3.95209 11.6408
64 1 1.84741 5.08232 10.6956
66 1 1.97587 4.68311 9.25528
39 1 0.120756 8.61971 0.963921
43 1 2.35781 8.04208 0.772909
42 1 1.27706 8.1078 1.7499
54 1 2.42169 6.55867 5.55565
50 1 2.24854 8.7019 3.89173
52 1 0.912852 6.36731 5.59764
40 1 0.849874 6.59265 3.2239
60 1 2.62516 7.87133 5.01557
53 1 0.268104 6.24382 4.35151
41 1 1.38436 7.84366 3.00984
108 1 1.44892 8.43812 8.61395
67 1 1.82042 7.12365 8.26294
71 1 0.715917 6.21378 8.07514
59 1 0.0990069 6.5499 6.79329
109 1 0.302544 8.94864 8.02958
77 1 1.97949 6.29165 11.3539
76 1 1.85075 7.66963 11.6847
75 1 1.20775 8.85172 11.0832
89 1 1.48018 10.6571 0.772204
84 1 1.37538 10.5536 2.20059
80 1 0.673056 9.64462 -0.0246424
83 1 2.25932 10.0277 3.2106
21 1 1.99501 11.61 5.09541
96 1 1.29192 10.5097 5.6223
176 1 -0.20524 10.5893 5.871
107 1 1.82446 9.16825 9.87797
3 1 5.09267 1.15259 1.97503
1 1 3.86066 1.72855 2.24573
16 1 4.19517 0.0789332 5.4281
18 1 3.87658 1.4441 5.84469
26 1 5.8202 0.827768 8.84025
24 1 5.59514 2.27307 8.57418
10 1 5.08668 2.03996 6.19057
9 1 5.63338 2.82132 7.28739
25 1 3.25778 2.0711 9.56726
36 1 2.9886 0.914943 11.7047
48 1 4.2194 4.82797 0.60157
44 1 5.44838 5.13324 2.69087
46 1 4.31443 4.68173 2.02985
8 1 3.39259 3.91256 2.69843
56 1 5.00892 5.74409 5.63871
58 1 5.86905 4.44219 5.67834
70 1 3.1642 5.15402 8.52849
57 1 3.11937 4.67607 7.01399
51 1 3.5267 5.75235 5.95474
78 1 4.92785 4.58085 11.6264
68 1 4.24592 4.4351 9.37132
69 1 4.78207 5.18433 10.3586
37 1 5.86743 3.55364 11.6756
27 1 4.31696 3.02291 9.25401
47 1 4.97097 7.75176 2.31185
82 1 4.62696 8.71842 1.29168
49 1 5.89805 6.57738 2.13648
92 1 5.05441 8.41145 3.57124
55 1 5.75903 7.09567 5.53784
73 1 4.08714 7.72186 8.67092
62 1 5.56651 7.52055 8.02585
61 1 5.68169 8.07726 6.68782
65 1 3.20268 6.68532 8.54808
102 1 4.27375 9.05068 9.14853
72 1 5.3559 6.46493 10.0805
81 1 5.50293 7.59605 10.8907
88 1 3.48859 11.3655 1.94961
85 1 3.10907 10.7398 0.51413
91 1 5.69447 9.56734 1.04366
90 1 3.27924 9.08056 0.8073
20 1 3.3118 11.6268 4.5764
94 1 5.58786 11.7205 5.43185
97 1 5.53506 10.3581 5.18047
87 1 3.28508 10.9847 3.34084
95 1 5.69282 9.61002 3.94883
93 1 5.39902 9.5752 6.37434
100 1 5.20288 10.6714 7.83476
101 1 5.43038 9.83515 8.84715
33 1 3.58643 11.9871 9.02629
106 1 4.90849 12.0413 8.28252
98 1 3.34886 11.0818 10.1326
103 1 3.32632 11.7185 11.507
99 1 3.2551 9.66296 9.9322
86 1 5.89459 9.90202 11.8353
114 1 8.7087 1.95786 0.393421
2 1 6.26382 1.27003 2.68469
15 1 6.90158 0.210789 4.91838
19 1 6.97375 0.728288 3.62757
121 1 8.19055 -0.0351426 5.62354
129 1 8.34395 0.433384 9.4814
130 1 8.1084 2.56856 11.5135
137 1 6.88763 0.526633 9.90644
134 1 6.80095 2.77754 11.016
147 1 7.74484 4.60335 2.42921
139 1 8.96879 5.31889 2.01112
141 1 6.5328 4.49685 3.277
150 1 8.17029 3.65878 4.97593
156 1 6.88519 4.27095 4.68296
151 1 8.53875 5.2815 6.95308
166 1 7.47147 4.44025 7.63089
23 1 6.247 4.0895 6.99677
167 1 7.61527 3.92547 8.99217
165 1 8.64833 4.3972 9.83091
35 1 6.68656 3.01093 9.57124
171 1 7.90733 8.47445 1.49167
140 1 7.64177 7.71347 0.242906
142 1 8.2311 7.61349 2.59326
145 1 6.71247 6.61668 0.722449
144 1 7.09792 7.12098 3.2852
148 1 7.01566 6.975 4.73803
154 1 8.24028 7.00219 5.39922
153 1 8.4981 6.64698 6.65009
162 1 8.67869 7.54349 7.68267
188 1 7.78208 8.32033 11.1029
160 1 7.66163 7.37162 9.78599
74 1 6.3581 6.78479 9.09472
110 1 6.47055 8.9591 10.9967
159 1 8.97277 7.043 9.12964
169 1 6.94045 9.48624 1.74818
170 1 6.83409 9.96926 3.10103
174 1 7.93826 10.7782 3.38365
177 1 8.76967 9.64668 6.30132
178 1 8.73596 11.0996 6.32079
180 1 7.90597 9.8926 8.67692
181 1 8.51974 11.2494 8.74206
184 1 8.33737 8.94812 7.62831
104 1 6.71948 9.66298 9.4223
191 1 8.93311 9.36777 10.8777
115 1 10.8438 1.46183 2.10365
112 1 9.7567 1.38525 1.08283
116 1 12.173 0.947327 2.66544
111 1 10.2374 2.05445 3.34661
126 1 11.2873 0.133218 4.55349
120 1 10.1711 1.08975 4.47227
123 1 9.09477 0.998775 5.37745
127 1 10.1966 0.464472 7.83034
189 1 11.5279 0.0693639 7.40657
135 1 10.0894 2.45818 9.69804
131 1 9.44388 1.39824 9.12362
105 1 11.6679 -0.00122431 10.2124
119 1 9.91536 4.73265 1.09787
117 1 11.2661 4.68123 1.81677
146 1 11.0143 4.51693 3.22018
124 1 9.69718 3.7144 4.97427
128 1 10.4998 3.38129 3.79851
157 1 11.1681 5.774 3.92119
161 1 10.4763 5.10791 8.46939
155 1 9.87962 4.84702 7.06154
125 1 10.5354 4.00176 6.13618
122 1 11.8766 3.76348 6.41708
133 1 11.5865 4.42021 8.91321
163 1 9.39127 5.52349 9.24817
113 1 9.76139 4.31953 12.0685
136 1 9.27831 3.43279 10.823
132 1 11.4308 3.05591 9.6234
143 1 9.27288 6.60864 2.68117
168 1 11.1966 7.97936 0.805633
149 1 9.48366 7.63618 4.82069
138 1 10.0447 6.75632 3.82883
152 1 11.2012 7.42826 6.65828
158 1 11.052 7.57613 10.457
164 1 10.3195 7.91849 9.37582
79 1 10.6422 7.46475 11.7373
172 1 10.2534 10.1266 4.43657
173 1 11.1604 11.0069 4.83055
179 1 9.42052 10.7604 3.4548
175 1 9.56179 9.10277 5.12483
182 1 11.3777 9.7711 8.09651
186 1 11.6055 10.9053 7.25712
185 1 9.37195 11.5099 7.60121
183 1 10.4797 9.36988 9
187 1 10.1135 9.98126 10.2192
190 1 10.7128 11.21 10.3855
ITEM: TIMESTEP
3000
ITEM: NUMBER OF ATOMS
191
ITEM: BOX BOUNDS pp pp pp
-2.1765454029136017e-01 1.2217654540291367e+01
-2.1765454029136017e-01 1.2217654540291367e+01
-2.1765454029136017e-01 1.2217654540291367e+01
ITEM: ATOMS id type x y z
12 1 0.980756 0.462437 4.98529
118 1 -0.124171 0.623802 3.97872
31 1 2.61117 0.813385 8.78724
32 1 1.17721 0.653099 8.45723
11 1 0.462116 0.894241 7.18903
17 1 2.40155 2.05103 6.19819
13 1 1.17689 1.2758 6.05215
28 1 0.195164 0.700029 9.64687
29 1 -0.0173268 1.97212 10.4176
38 1 2.48901 1.76655 10.9163
30 1 1.19436 2.52289 11.0546
36 1 2.67424 0.470936 11.5503
7 1 0.0607741 4.57698 1.37399
6 1 1.09772 3.88938 0.851729
45 1 0.536717 5.73336 2.02517
4 1 2.13369 3.07992 1.4966
14 1 1.99901 3.4478 6.88834
22 1 0.585116 3.78517 7.42758
63 1 0.452075 4.38638 8.77201
57 1 2.72623 4.83055 6.96172
34 1 1.32288 3.84956 11.7778
64 1 1.72257 4.88713 10.8203
66 1 1.66468 4.67156 9.4777
39 1 0.261972 8.54619 0.749918
43 1 2.39793 7.97566 0.309142
42 1 1.4308 7.97346 1.31445
41 1 1.44488 7.93799 2.70739
54 1 2.22061 6.91216 5.3879
50 1 2.15221 8.85515 3.49397
52 1 0.673025 6.82415 5.41108
53 1 0.00987265 6.58463 4.14661
40 1 0.871835 6.6979 3.03682
60 1 2.47725 8.13561 4.8111
108 1 1.50548 8.5451 8.73751
67 1 1.99314 7.30218 8.37828
71 1 1.04198 6.64727 7.67672
59 1 0.117059 6.88352 6.68382
75 1 1.22091 8.82272 11.0232
76 1 1.76877 7.54766 11.5144
77 1 1.70529 6.23119 11.3212
89 1 1.49745 10.4715 0.419615
84 1 1.36656 10.6503 1.91536
83 1 2.47739 10.2357 2.84238
96 1 0.840505 10.4404 5.18352
21 1 1.6736 11.6161 5.0091
109 1 0.697888 9.28756 7.90269
80 1 0.653627 9.47187 12.163
107 1 1.8527 9.31505 9.95274
3 1 5.22505 1.38917 2.09604
1 1 3.77145 1.36639 2.17946
5 1 3.35894 2.83535 2.11152
88 1 3.23272 0.226774 2.68921
16 1 4.0479 0.189242 5.46584
18 1 3.60841 1.57237 5.60976
10 1 4.73945 2.36528 5.9621
26 1 5.49127 0.892734 8.23254
24 1 5.00858 2.23459 8.19839
9 1 5.48343 2.82736 7.09508
25 1 3.13432 1.8837 9.63715
37 1 5.67732 2.5601 11.2035
48 1 5.67352 4.66863 0.119874
44 1 5.7247 5.43369 2.57073
46 1 5.07593 4.70625 1.51163
8 1 4.13805 3.94131 1.93947
58 1 5.76625 4.81777 5.66711
51 1 3.2646 5.87428 5.92356
70 1 3.11615 5.21502 8.65454
27 1 4.09782 2.86737 8.98643
78 1 5.06189 3.84838 11.4743
69 1 4.86146 4.78855 10.3897
68 1 4.19394 4.33992 9.2616
72 1 5.87211 5.98714 10.415
47 1 4.78054 8.06235 2.35211
82 1 4.61099 8.81483 1.23605
90 1 3.38602 9.0403 0.395438
49 1 5.67441 6.8845 2.84349
55 1 5.90906 7.29171 5.75796
92 1 4.65742 8.76961 3.53464
56 1 4.92776 6.11435 5.79276
73 1 4.18493 7.68353 8.92385
62 1 5.66774 7.4869 8.51469
61 1 5.79071 8.18495 6.88914
65 1 3.26156 6.79556 8.74897
102 1 4.23805 9.02548 9.30819
91 1 5.73233 9.53833 0.784509
85 1 2.93299 10.4229 0.115366
94 1 5.4162 11.9389 5.37736
95 1 5.63366 9.83902 3.92151
97 1 5.32678 10.4771 5.27768
20 1 2.97252 11.5944 4.66894
87 1 3.11526 11.3535 3.27205
93 1 5.48965 9.73468 6.64623
100 1 5.23692 10.5886 7.83667
106 1 4.79758 11.9848 8.20362
33 1 3.36803 12.0096 8.87423
101 1 5.38799 9.74668 8.98013
98 1 3.3167 11.2037 10.152
103 1 3.15282 11.5605 11.5269
99 1 3.18341 9.75822 9.94249
2 1 6.28668 0.708146 2.60596
15 1 6.71225 -0.0987056 4.94986
19 1 7.05413 -0.13242 3.57732
121 1 7.96706 -0.239181 5.72692
123 1 8.9125 0.908262 5.67722
137 1 7.05659 1.16343 8.84957
129 1 8.21954 0.317845 9.09161
134 1 7.00356 2.39701 11.0174
35 1 7.39658 2.57565 9.55764
130 1 8.2393 2.81118 11.7905
147 1 8.09206 4.63339 2.48561
141 1 6.83654 4.72431 3.31512
150 1 8.19437 4.15894 5.19176
156 1 7.03692 4.5918 4.65713
151 1 8.43527 5.20387 7.21575
166 1 7.23051 4.52488 7.74816
23 1 6.16016 4.06025 6.85537
165 1 8.39393 4.71535 10.1614
136 1 8.86047 3.96366 11.2797
81 1 6.41146 5.84608 11.9016
167 1 7.52298 3.92513 9.13165
171 1 7.83421 8.54782 1.47143
140 1 7.85395 7.96777 0.0885579
142 1 8.15981 7.53078 2.58075
145 1 7.50258 6.54277 -0.151727
144 1 6.92858 7.39085 3.48549
148 1 6.94116 7.35256 4.93201
154 1 8.20512 7.18988 5.51776
153 1 8.24201 6.64951 6.86752
162 1 8.52169 7.60702 7.90913
184 1 8.29205 9.06452 7.55179
188 1 8.17225 8.542 11.2571
160 1 7.7246 7.61261 10.0408
74 1 6.39118 7.06629 9.70026
159 1 8.68408 6.88783 9.22165
169 1 6.78858 9.30716 1.69891
174 1 7.75256 11.0002 3.30793
179 1 9.09535 10.4788 3.29862
170 1 6.77679 10.0569 2.95285
177 1 8.84334 9.66477 6.31329
178 1 8.68505 11.0583 6.36128
180 1 7.76964 10.069 8.5351
181 1 8.41266 11.4206 8.81316
104 1 6.70532 9.80872 9.58028
110 1 7.09509 9.76623 10.9107
86 1 6.13136 9.79038 11.9165
115 1 10.7997 1.59948 2.35278
112 1 10.2775 1.75678 1.11649
116 1 12.117 1.17493 2.71422
114 1 9.2217 2.20127 0.296549
111 1 10.0597 2.02257 3.55782
126 1 11.0606 0.134606 4.60137
120 1 10.0552 1.10919 4.6786
127 1 10.2785 0.0696582 7.99834
189 1 11.4897 -0.0513947 7.37322
131 1 9.49205 0.976079 8.9379
135 1 9.94763 2.17073 9.32489
132 1 11.2573 2.68611 9.72587
119 1 10.2302 4.88478 0.996383
117 1 11.1991 4.37794 1.84281
139 1 9.15571 5.29143 2.02187
146 1 10.9872 4.62984 3.31997
124 1 9.55047 3.84701 5.22414
128 1 10.2902 3.46883 4.02751
157 1 11.2112 5.91176 3.96918
161 1 10.3882 4.83167 8.69504
155 1 9.74743 4.77221 7.43511
125 1 10.448 4.23417 6.39564
122 1 11.9023 3.86308 6.48327
133 1 11.5855 4.01784 9.25251
163 1 9.34022 5.57851 9.62024
113 1 9.67854 4.84216 12.2035
168 1 11.5798 7.76421 0.648336
143 1 9.25158 6.61583 2.77097
149 1 9.41816 7.63968 4.95893
138 1 10.0633 6.74623 3.96023
175 1 9.49412 9.06069 5.12477
152 1 11.3107 7.19992 7.15859
183 1 10.9058 9.10478 9.15357
158 1 11.4562 7.09494 10.6472
79 1 11.0567 7.06744 12.018
164 1 11.1076 7.7611 9.39978
172 1 10.0234 10.0642 4.24758
173 1 10.9713 11.1404 4.71277
176 1 11.9447 10.6103 5.63545
182 1 11.8124 9.67043 7.99421
186 1 11.58 10.7931 7.02086
185 1 9.32188 11.5556 7.61759
187 1 10.5482 9.84768 10.2825
190 1 11.376 10.9332 10.6232
105 1 12.0694 12.0044 10.2719
191 1 9.42654 9.18412 11.1579
ITEM: TIMESTEP
4000
ITEM: NUMBER OF ATOMS
191
ITEM: BOX BOUNDS pp pp pp
-1.8970145680446265e-01 1.2189701456804476e+01
-1.8970145680446265e-01 1.2189701456804476e+01
-1.8970145680446265e-01 1.2189701456804476e+01
ITEM: ATOMS id type x y z
116 1 -0.144759 1.3612 2.9268
12 1 0.959759 0.398188 5.04326
17 1 2.17336 2.15736 6.05209
13 1 1.11846 1.19245 6.18649
31 1 2.73755 0.74274 8.89518
32 1 1.28572 0.695554 8.62653
11 1 0.540442 0.695664 7.36647
28 1 0.347666 0.760586 9.5783
29 1 -0.00290354 1.99594 10.1169
38 1 2.28962 1.8437 10.819
30 1 1.04678 2.37993 11.0086
36 1 2.62519 0.510179 11.5785
7 1 0.33533 4.61538 1.57571
6 1 1.00032 3.77335 0.619961
45 1 1.16701 5.25769 2.4538
4 1 2.16148 2.89206 1.07589
14 1 1.88236 3.67182 6.51917
22 1 0.476559 3.63051 7.08447
63 1 0.377064 4.26201 8.57127
57 1 2.87641 4.67337 6.84269
34 1 1.04901 3.62943 11.5383
64 1 1.53607 4.71458 10.7619
66 1 1.58805 4.57673 9.30999
77 1 1.92721 5.87577 11.298
39 1 0.0316387 8.17719 0.645908
43 1 2.32219 7.80285 0.514405
42 1 1.22752 7.81938 1.46538
41 1 1.42053 7.65893 2.82062
54 1 2.4562 6.59087 5.21517
50 1 2.08577 8.61411 3.55944
52 1 0.969728 6.44043 5.40714
53 1 0.0687214 6.24146 4.35723
60 1 2.58682 7.95451 4.67089
40 1 0.805325 6.4144 3.15021
108 1 1.6458 8.42924 8.65727
67 1 1.95347 7.1456 8.2447
71 1 1.05319 6.29112 7.76208
59 1 0.339047 6.57496 6.60986
75 1 1.30207 8.38779 11.0179
76 1 1.9309 7.19228 11.6156
107 1 2.00164 8.94723 9.91641
89 1 1.15432 10.1975 0.392064
84 1 1.08787 10.3216 1.79957
85 1 2.62038 10.3863 0.100799
96 1 0.888774 10.4324 5.50895
21 1 1.69567 11.4905 5.15706
83 1 2.07572 10.0497 2.94976
87 1 3.09348 11.2696 3.20512
109 1 0.567828 9.15641 8.04234
105 1 -0.121166 12.146 10.2419
80 1 0.445161 9.10346 11.9826
3 1 5.492 1.3611 1.94991
1 1 4.04204 1.33 1.79748
5 1 3.54979 2.60597 1.58198
88 1 3.415 0.088281 2.35771
16 1 3.9591 0.148704 5.16199
18 1 3.67604 1.51071 5.59822
10 1 4.78152 2.34288 6.00796
26 1 5.71901 0.954344 8.73816
24 1 5.11699 2.24326 8.32868
9 1 5.55602 2.93021 7.14457
25 1 3.17723 1.98451 9.59327
27 1 4.01858 2.8652 9.0555
48 1 5.54066 5.05024 0.147226
44 1 5.70358 5.58256 2.6374
46 1 5.17218 4.94516 1.50191
8 1 4.30177 3.78767 1.91511
58 1 5.83232 5.02601 5.80791
56 1 4.86876 6.10994 5.79143
51 1 3.4031 5.61132 5.92738
70 1 2.94288 4.97437 8.62105
78 1 5.30741 4.07548 11.5543
69 1 5.1098 4.74671 10.2054
68 1 4.1894 4.25849 9.20344
47 1 4.63002 7.98162 2.6011
82 1 4.49744 8.59093 1.17134
49 1 5.63457 7.02249 2.87981
90 1 3.29063 8.97514 0.586616
55 1 5.59859 7.37101 5.79788
92 1 4.63685 8.88613 3.60834
73 1 4.14741 7.51258 8.80122
62 1 5.62366 7.45124 8.4001
61 1 5.59338 8.26594 6.87299
65 1 3.18286 6.48109 8.50699
72 1 5.85594 6.06387 10.374
102 1 4.26229 8.95403 9.17996
91 1 5.6069 9.38348 0.680888
94 1 5.28911 11.9353 5.3939
95 1 5.55923 9.8941 4.12368
97 1 5.41048 10.5403 5.33486
20 1 3.00343 11.6666 4.60087
93 1 5.5166 9.90011 6.6486
100 1 5.20644 10.7348 7.93669
106 1 4.89326 12.1089 8.42931
33 1 3.60583 11.9544 9.23293
101 1 5.39168 9.86221 8.98609
98 1 3.2903 11.0098 10.2368
103 1 2.85847 11.5505 11.6624
99 1 3.1826 9.55004 9.99712
86 1 6.0796 10.0108 11.9394
2 1 6.3423 0.947413 2.86854
123 1 8.99474 1.06505 5.26944
15 1 6.61563 0.0810819 5.20856
19 1 7.03305 0.102856 3.76218
121 1 7.97915 -0.067128 5.68393
134 1 7.41745 2.64902 11.2162
35 1 7.39992 2.50792 9.73986
129 1 8.21462 0.36974 9.13065
137 1 7.19068 1.21967 9.23542
37 1 6.15765 2.89267 11.7412
147 1 7.91479 4.75406 2.41705
139 1 9.00326 5.47884 1.96162
141 1 6.77689 4.89953 3.23797
150 1 8.21304 4.66319 5.35628
156 1 6.89791 4.9251 4.72136
151 1 8.11412 5.28884 6.62457
166 1 7.39863 4.43541 7.62159
167 1 7.93415 3.894 9.20916
23 1 6.24384 4.10109 6.91552
165 1 8.7325 4.72518 10.0827
130 1 8.71883 3.07396 11.763
171 1 7.81644 8.57294 1.4589
140 1 7.97124 8.2784 0.0123241
142 1 8.01487 7.63731 2.56256
145 1 7.07502 7.05881 -0.206319
144 1 6.93491 7.3497 3.45998
148 1 6.8503 7.38898 4.86195
154 1 8.15516 7.29889 5.46874
153 1 8.44674 6.62995 6.69428
162 1 8.68491 7.64416 7.77305
184 1 8.23143 9.0439 7.54429
74 1 6.42905 6.97387 9.449
160 1 7.73435 7.27879 9.87318
81 1 5.99784 6.26954 11.9753
159 1 8.76511 7.01823 8.98039
169 1 6.78777 9.47909 1.7528
174 1 7.56987 11.2626 3.33411
170 1 6.54987 10.2622 3.08006
179 1 8.94694 10.931 3.42054
177 1 8.596 9.71155 6.32112
178 1 8.55673 11.0424 6.39171
180 1 7.79561 9.86421 8.74477
181 1 8.26457 11.3184 8.74351
104 1 6.67108 9.73172 9.58339
110 1 6.91203 9.64037 10.9547
188 1 8.20995 9.22919 11.4041
115 1 10.9467 1.89617 2.44956
112 1 10.2955 1.72056 1.20433
114 1 9.65793 2.34483 0.297146
111 1 10.2399 2.37769 3.58022
126 1 11.0489 0.0557456 4.38279
120 1 10.0737 1.11958 4.32939
118 1 12.324 0.456503 3.95343
127 1 10.2363 0.0343621 8.03281
189 1 11.505 -0.292774 7.48514
131 1 9.5569 0.930445 8.86897
135 1 10.1146 2.0116 9.29706
119 1 10.0324 5.04821 1.26575
117 1 11.2861 4.60915 1.90418
146 1 10.9012 4.68387 3.40514
124 1 9.51676 3.84198 5.19044
128 1 10.0002 3.66126 3.92561
161 1 10.5377 5.07868 8.64202
155 1 10.6936 5.02104 7.08206
125 1 10.5678 3.82297 6.31769
122 1 11.7196 2.95323 6.55136
133 1 11.5479 4.12992 9.18883
113 1 10.0772 5.26625 12.2548
163 1 9.41773 5.71751 9.20655
132 1 11.2189 2.83971 9.66332
136 1 9.15817 4.4869 11.3836
168 1 11.2627 7.25725 0.539935
143 1 9.14084 6.82342 2.60038
149 1 9.3893 7.88506 4.76577
138 1 9.99439 7.21295 3.77938
157 1 11.0511 6.09042 3.91068
152 1 11.3428 6.26655 6.73985
158 1 11.1022 6.87852 10.5941
79 1 10.9021 6.32177 11.8241
164 1 10.9971 7.99379 9.95606
172 1 9.72641 10.3902 4.46575
173 1 10.9517 10.9769 4.80492
176 1 11.9052 10.5388 5.90549
175 1 9.35721 9.25031 5.14683
182 1 11.7259 9.75116 8.2675
186 1 11.5592 10.7654 7.1944
185 1 9.1533 11.3767 7.6232
187 1 10.3833 10.4197 10.2862
190 1 11.2608 11.42 10.7949
191 1 9.44893 9.86896 11.3226
183 1 10.9737 9.42635 9.42554
ITEM: TIMESTEP
5000
ITEM: NUMBER OF ATOMS
191
ITEM: BOX BOUNDS pp pp pp
-1.3041750336288568e-01 1.2130417503362924e+01
-1.3041750336288568e-01 1.2130417503362924e+01
-1.3041750336288568e-01 1.2130417503362924e+01
ITEM: ATOMS id type x y z
116 1 -0.104867 1.33116 2.82361
4 1 1.67698 2.66822 1.51338
12 1 0.95571 0.50829 4.81761
118 1 -0.133762 0.603545 4.01023
31 1 2.91792 0.821086 8.89941
32 1 1.52675 0.744412 8.41489
11 1 0.61389 0.716171 7.33602
13 1 1.15408 1.28506 6.04285
17 1 2.31882 2.18686 5.95936
28 1 0.646891 0.843416 9.57539
29 1 0.309624 2.12855 10.1642
38 1 2.44217 1.79759 10.9442
30 1 1.31915 2.59749 10.9766
36 1 2.78992 0.599226 11.6652
7 1 0.307489 4.5964 1.62946
6 1 0.923511 3.74518 0.79659
45 1 1.34886 5.3146 2.29227
14 1 2.19988 3.43865 6.51111
22 1 0.852605 3.82929 7.00475
63 1 0.787751 4.381 8.34162
34 1 1.277 3.75307 11.6055
64 1 1.68571 4.8596 10.8202
66 1 1.73661 4.65534 9.26743
41 1 1.54806 7.73636 2.66728
43 1 2.42228 7.93377 0.501325
42 1 1.23063 7.93049 1.31156
39 1 0.1395 8.33959 0.478235
54 1 2.51777 6.94224 5.22411
50 1 2.11322 8.71773 3.52936
52 1 1.07819 6.78909 5.30676
53 1 0.232649 6.54772 4.09128
40 1 1.20087 6.39246 3.04724
108 1 1.52952 8.7505 8.49652
67 1 1.94375 7.42008 8.26625
71 1 1.0087 6.58347 7.60094
59 1 0.385459 6.83138 6.46461
75 1 1.32018 8.66609 10.9347
76 1 2.16115 7.45757 11.499
77 1 2.24036 6.08248 11.1742
89 1 1.20967 10.2914 0.456122
84 1 1.1251 10.4654 1.88266
85 1 2.72303 10.4182 0.070828
96 1 0.858059 10.4372 5.44035
21 1 1.65064 11.5459 5.04989
87 1 3.02395 11.057 3.15023
83 1 2.08712 9.95123 2.86447
109 1 0.579442 9.35603 7.77161
80 1 0.567397 9.34614 11.8464
107 1 1.85592 9.33672 9.68518
3 1 5.06796 0.93591 2.24328
1 1 3.72159 1.12783 2.15258
5 1 3.11057 2.39622 1.87666
88 1 3.07699 -0.0469998 2.33796
16 1 4.05864 -0.119254 5.32475
18 1 3.6757 1.45373 5.65089
10 1 4.8748 2.28619 5.97496
9 1 5.47349 2.81113 7.14664
24 1 5.12557 2.14514 8.3504
26 1 5.90969 0.998832 8.65875
25 1 3.29016 1.952 9.76748
27 1 4.2346 2.81723 9.21751
48 1 5.31006 4.84988 0.297524
44 1 5.50214 5.24317 2.6921
46 1 4.88105 4.50368 1.61096
8 1 3.9648 3.55802 1.92839
58 1 5.87568 4.74915 5.89664
56 1 4.94169 5.87541 5.86004
51 1 3.49742 5.7422 5.97358
70 1 3.1075 5.04791 8.70247
23 1 6.17357 4.02603 7.14852
57 1 3.04227 4.69676 6.92292
78 1 5.19169 3.88214 11.5305
69 1 5.1973 4.6996 10.3126
68 1 4.19904 4.25885 9.31152
47 1 4.50938 7.80266 2.55095
90 1 3.3382 9.18804 0.531242
82 1 4.43997 8.81687 1.3209
49 1 5.54148 6.68893 2.73358
92 1 4.32391 8.42464 3.86314
55 1 5.637 7.23114 5.66341
60 1 3.09479 8.11715 4.52182
65 1 3.10839 6.60572 8.76785
62 1 5.5379 7.46025 8.33087
61 1 5.58454 8.16814 6.9871
73 1 4.30114 7.59351 8.8777
102 1 4.20699 9.01575 9.37501
72 1 5.88692 5.97789 10.2826
91 1 5.55242 9.56381 0.964231
94 1 5.3663 11.5664 5.50804
95 1 5.27539 9.43189 4.17449
97 1 5.26804 10.1054 5.58033
20 1 3.00136 11.4052 4.58885
93 1 5.39781 9.62022 6.87187
100 1 5.29373 10.5983 7.97221
106 1 5.01912 12.0163 8.26305
33 1 3.86738 12.0593 9.04014
98 1 3.28355 11.1466 10.076
99 1 3.11108 9.7086 9.71985
103 1 3.04778 11.5319 11.3981
101 1 5.46796 9.75169 9.16882
86 1 5.96404 10.1026 12.0212
2 1 6.11525 0.663291 2.96879
123 1 8.68672 1.01328 5.24582
121 1 7.91781 -0.0521112 5.74331
15 1 6.62307 -0.186633 5.19964
19 1 6.80902 -0.190711 3.84613
134 1 7.40265 2.66359 11.1273
35 1 7.3381 2.61018 9.71327
37 1 6.08 2.84867 11.6641
129 1 8.41808 0.403043 9.46324
137 1 7.21531 1.22517 9.21626
147 1 8.09583 4.80492 2.79224
139 1 8.98746 5.60583 2.05297
141 1 6.77882 4.84247 3.4177
150 1 8.21753 4.35059 5.49644
156 1 6.91541 4.54381 4.84822
151 1 8.01843 5.08246 6.85097
166 1 7.34491 4.33224 7.82726
167 1 7.68384 3.90139 9.09574
165 1 8.64424 4.64946 9.96434
130 1 8.67395 3.02074 11.7548
171 1 7.5936 8.50898 1.66324
140 1 7.80299 8.18728 0.335081
142 1 7.76023 7.59186 2.63164
145 1 7.18762 7.04996 -0.125893
144 1 6.70601 7.23025 3.48134
148 1 6.80617 7.27608 4.83156
154 1 8.15979 7.06687 5.33371
153 1 8.17774 6.48146 6.61501
162 1 8.49828 7.46873 7.62524
159 1 8.70447 6.73267 8.8154
74 1 6.43212 6.86831 9.38398
160 1 7.78842 7.17746 9.65539
81 1 6.03554 6.24453 11.8317
169 1 6.58166 9.44656 1.95473
174 1 7.33831 10.856 3.44735
170 1 6.38765 9.91813 3.19234
179 1 8.69226 10.6547 3.4559
177 1 8.61557 9.61661 6.39989
178 1 8.71703 11.1148 6.50555
180 1 7.87706 10.0113 8.75432
181 1 8.45702 11.28 8.85475
184 1 8.35502 8.97063 7.61165
104 1 6.87509 9.58607 9.66121
110 1 6.95205 9.75577 11.0699
188 1 8.2448 9.18781 11.6461
115 1 10.9798 2.10242 2.51812
112 1 10.3928 2.17149 1.31563
114 1 9.65754 2.37375 0.207693
111 1 10.2044 2.40849 3.64188
126 1 10.8223 0.206055 4.40616
120 1 9.85244 1.18805 4.49562
127 1 10.2146 0.493787 8.03802
189 1 11.5014 0.0927829 7.31791
131 1 9.66427 1.12611 9.13823
135 1 10.2054 2.3092 9.65105
132 1 11.5388 3.00906 9.70436
119 1 10.1199 5.03592 1.20695
117 1 11.2409 4.70415 1.9634
113 1 10.0444 5.33347 -0.217591
146 1 10.8204 4.88639 3.41649
124 1 9.57682 3.92133 5.39061
128 1 10.2571 3.75238 4.08761
161 1 10.7042 5.08036 8.50988
155 1 10.6538 5.4373 7.19144
122 1 11.924 3.63465 6.24231
125 1 10.6418 4.22423 6.33138
133 1 11.8023 4.22129 9.00866
136 1 9.02815 4.44981 11.3166
163 1 9.48384 5.55577 9.21856
168 1 11.177 7.48847 0.345262
143 1 9.05586 6.89418 2.59114
149 1 9.26469 7.80529 4.88208
138 1 9.92052 7.17439 3.75117
157 1 10.9697 6.26725 3.7843
152 1 11.2761 6.52487 6.52667
158 1 11.1191 6.85964 10.3143
79 1 10.7143 6.58626 11.6076
164 1 10.9901 7.9012 9.29004
172 1 9.72289 10.0381 4.34083
173 1 10.7511 10.9613 4.6324
176 1 11.6761 10.5523 5.60485
175 1 9.4514 9.0697 5.36142
182 1 11.5541 9.84642 7.91655
186 1 11.3492 11.0007 6.96866
185 1 9.2485 11.6057 7.75146
187 1 10.4301 10.1586 10.19
190 1 11.1189 11.3235 10.4259
191 1 9.47611 9.54425 11.201
183 1 10.9035 9.29878 9.11944
105 1 12.1354 12.0383 9.89538
ITEM: TIMESTEP
6000
ITEM: NUMBER OF ATOMS
191
ITEM: BOX BOUNDS pp pp pp
-1.2958331994621902e-01 1.2129583319946253e+01
-1.2958331994621902e-01 1.2129583319946253e+01
-1.2958331994621902e-01 1.2129583319946253e+01
ITEM: ATOMS id type x y z
12 1 0.980264 0.63641 5.07136
116 1 -0.0189642 1.26736 2.98246
31 1 2.61648 0.855777 8.91609
32 1 1.22829 0.752196 8.65994
11 1 0.564086 0.798955 7.43883
13 1 1.23578 1.28462 6.29509
17 1 2.3369 2.12454 6.16751
28 1 0.344522 0.777761 9.84296
29 1 0.145763 2.06167 10.3035
38 1 2.56555 1.84623 10.9976
30 1 1.25084 2.56411 10.9824
36 1 2.90313 0.625474 11.5745
7 1 0.315873 4.53177 1.58739
6 1 1.04104 3.68785 0.775581
45 1 1.07691 5.62935 2.03216
4 1 1.9694 2.95263 1.5238
14 1 2.10598 3.5591 6.5459