ITEM: TIMESTEP
1000
ITEM: NUMBER OF ATOMS
191
ITEM: BOX BOUNDS pp pp pp
0.0000000000000000e+00 1.2000000000000000e+01
0.0000000000000000e+00 1.2000000000000000e+01
0.0000000000000000e+00 1.2000000000000000e+01
ITEM: ATOMS id type x y z
12 1 1.20509 0.848646 4.8824
1 1 2.45416 2.21262 3.44646
118 1 0.0568909 0.931156 4.21542
31 1 2.7963 1.20012 8.59879
32 1 1.33362 1.11411 8.47168
11 1 0.524598 1.20419 7.34151
17 1 2.71238 2.40746 6.16634
13 1 1.38231 1.67759 6.10224
28 1 0.600435 1.06936 9.68613
29 1 0.380463 2.49177 10.0643
30 1 1.54051 2.88833 10.6729
38 1 2.76966 2.1392 10.5977
4 1 2.18611 3.42645 1.49308
6 1 1.37529 4.1638 0.681185
7 1 0.316389 4.7799 1.23673
5 1 2.72351 3.38718 2.80547
53 1 0.358511 5.83537 4.1516
14 1 2.48962 3.77126 6.47623
22 1 1.04066 4.12647 6.92577
63 1 0.861504 4.89394 8.19573
34 1 1.60511 4.1806 11.3394
64 1 1.84804 5.17285 10.4568
66 1 1.97643 4.87993 9.13738
39 1 0.181589 8.50532 0.712513
43 1 2.65505 8.15867 0.868042
42 1 1.41328 7.99508 1.5577
45 1 0.410238 6.0196 1.6437
40 1 0.607622 6.50916 2.98891
41 1 1.37971 7.70322 2.91852
54 1 2.3679 6.52629 5.21292
50 1 2.14686 8.46843 3.69532
52 1 1.04645 6.21113 5.25484
60 1 2.43505 7.90596 4.88676
59 1 0.319578 6.54721 6.41356
67 1 1.82448 7.31926 8.10585
71 1 0.824954 6.39916 7.65354
108 1 1.50378 8.72625 8.5489
75 1 1.63839 8.73584 10.9
76 1 2.39605 7.75422 11.4558
77 1 2.36185 6.3648 11.1126
89 1 1.68557 10.4378 0.778156
84 1 1.26087 10.293 2.26055
96 1 1.39937 10.5244 5.80047
21 1 1.92503 11.6793 5.0829
83 1 1.97272 9.86486 3.45811
109 1 0.460584 9.13924 7.92927
107 1 1.96788 9.23301 9.68906
80 1 0.964113 9.47731 11.8748
3 1 3.46182 1.23958 3.5408
16 1 4.12741 0.164967 5.50129
2 1 4.94593 1.47411 3.18049
9 1 5.79569 2.82726 7.153
24 1 5.70492 2.43076 8.65892
26 1 5.83625 0.933983 8.58776
10 1 5.33926 2.06308 6.16372
18 1 3.95423 1.52412 6.0336
25 1 3.47206 2.22466 9.36298
36 1 3.1563 1.05003 11.3995
48 1 4.33373 4.65548 0.709691
44 1 5.99016 5.22315 2.44868
46 1 4.83482 4.57961 2.03733
8 1 3.91788 4.06314 2.96916
58 1 5.89245 4.77236 5.62939
56 1 5.05263 5.94244 5.47293
51 1 3.61934 5.79543 5.77172
70 1 3.40603 5.25056 8.37877
57 1 3.29911 4.88631 6.83742
78 1 5.12797 4.29346 11.5245
68 1 4.40579 4.42649 9.42396
69 1 5.059 5.21573 10.3426
27 1 4.47806 3.0505 9.22505
47 1 5.19546 7.94796 2.43487
82 1 4.90455 8.78538 1.39948
92 1 5.0144 8.61295 3.70179
55 1 5.95341 7.18716 5.53858
73 1 4.19161 7.74413 8.55678
62 1 5.53684 7.49362 7.95057
65 1 3.19209 6.8109 8.4114
61 1 5.63671 8.06901 6.60218
72 1 5.55993 6.5066 10.3029
81 1 5.54413 7.76087 11.0694
88 1 3.49987 11.0428 2.1632
85 1 3.16455 10.4098 1.00517
91 1 5.91697 9.71594 1.04399
90 1 3.67653 9.11918 1.0001
94 1 5.51007 11.7138 5.47563
97 1 5.54044 10.2859 5.25334
87 1 3.11333 10.7168 3.43176
20 1 3.18504 11.8843 4.2963
95 1 5.89847 9.73487 4.04418
93 1 5.64775 9.60237 6.45837
100 1 5.39615 10.4731 7.59658
101 1 5.51693 9.71445 8.84227
106 1 4.93343 11.8978 7.96221
33 1 3.59975 11.9983 8.55921
98 1 3.50555 11.1841 9.68144
103 1 3.22428 11.7935 10.9441
99 1 3.27887 9.79207 9.59418
102 1 4.32834 9.07969 9.01661
114 1 8.60925 1.0636 0.341457
15 1 6.28686 1.03729 5.36838
19 1 6.14573 1.31933 3.9212
121 1 7.76238 0.614062 5.91285
128 1 8.88866 2.97665 3.70562
129 1 8.35478 0.18746 9.37563
130 1 8.26103 2.13424 11.4211
137 1 7.02759 0.504277 9.32774
134 1 6.96563 2.54662 10.8961
35 1 6.87822 2.8466 9.43909
147 1 8.12484 3.78741 2.81579
139 1 8.95702 4.71955 2.11283
141 1 6.86754 4.534 3.29409
150 1 8.14886 4.52859 5.47536
156 1 6.87198 4.6036 4.71775
151 1 8.27125 5.07366 6.80782
166 1 7.22697 4.60737 7.64401
23 1 6.11789 4.13615 6.99852
167 1 7.57641 4.01855 8.90824
165 1 8.33637 4.89564 9.7276
37 1 6.09022 3.28999 11.648
49 1 6.32647 6.66491 2.15676
140 1 7.99375 7.68454 0.383597
142 1 8.58072 7.38481 2.5869
145 1 6.96274 6.67636 0.681379
171 1 8.11027 8.45739 1.63405
144 1 7.31434 7.04926 3.2988
148 1 7.18411 7.1601 4.73754
154 1 8.35935 7.1502 5.53352
153 1 8.1698 6.55922 6.73473
162 1 8.58165 7.49694 7.74916
184 1 8.14193 8.93666 7.51019
188 1 7.99517 8.26872 11.0671
74 1 6.48352 6.90777 9.14608
160 1 7.81743 7.2395 9.89896
169 1 7.09657 9.53003 1.87342
174 1 7.97704 10.9841 3.56656
170 1 6.93637 10.1165 3.21665
177 1 8.34338 9.55504 6.12299
178 1 8.10362 11.1346 6.34415
180 1 7.89147 9.70405 8.60484
181 1 8.60636 10.9521 8.71045
185 1 8.91145 11.4014 7.40967
104 1 6.73251 9.58153 9.41521
110 1 6.49943 9.08283 10.8292
86 1 6.07477 10.1283 11.7812
115 1 10.3233 1.23323 2.44296
116 1 11.6482 0.993539 2.82226
112 1 9.70433 1.22206 1.2498
111 1 9.4857 1.66562 3.53701
126 1 10.9251 0.207048 4.75638
120 1 9.76984 1.11383 4.82804
123 1 9.07273 1.35593 5.95414
127 1 9.85358 0.871564 7.35898
189 1 11.3665 0.497339 7.24559
131 1 9.26943 1.27343 8.8753
135 1 9.92736 2.45712 9.72437
136 1 9.31994 2.91918 10.9834
105 1 11.8296 0.0101488 10.1355
119 1 10.0568 4.12402 1.1601
117 1 11.2913 4.10232 1.87838
157 1 11.3328 4.9189 4.17809
124 1 9.18021 3.70881 5.01453
146 1 11.3855 3.97031 3.30822
138 1 10.2186 5.74187 3.89366
161 1 10.2777 4.94223 8.31128
155 1 9.72347 4.77316 7.05922
133 1 11.4486 4.36918 8.8939
122 1 11.7791 3.7662 6.22739
125 1 10.4313 4.01175 6.05778
163 1 9.44619 5.61201 9.18789
113 1 9.86272 3.82653 11.855
132 1 11.2015 3.12199 9.46298
143 1 9.41135 6.11047 2.82495
168 1 11.139 7.60473 0.563201
149 1 9.69535 7.6531 5.41856
152 1 10.827 7.13612 6.19421
159 1 9.168 7.09184 8.9772
158 1 11.2905 7.02504 10.2119
164 1 10.4181 7.84684 9.49228
79 1 11.2299 6.74242 11.5198
172 1 10.0074 10.0659 4.56232
173 1 11.0291 10.7553 5.07982
175 1 9.42791 9.05859 5.30838
179 1 9.28849 10.6904 3.58403
182 1 11.2861 9.8532 8.11419
186 1 11.4828 11.032 7.29613
176 1 11.9937 10.5963 6.03074
187 1 10.2157 9.88624 10.5578
190 1 10.9942 11.1135 10.7664
183 1 10.5117 9.3033 9.2034
191 1 9.03 9.33326 11.045
ITEM: TIMESTEP
2000
ITEM: NUMBER OF ATOMS
191
ITEM: BOX BOUNDS pp pp pp
-1.1133971929971352e-01 1.2111339719299753e+01
-1.1133971929971352e-01 1.2111339719299753e+01
-1.1133971929971352e-01 1.2111339719299753e+01
ITEM: ATOMS id type x y z
5 1 2.7729 2.61044 2.17707
4 1 1.55159 2.73166 1.43742
12 1 1.20216 0.736597 4.75336
118 1 0.126532 0.393793 3.89875
13 1 1.30011 1.47457 6.05787
31 1 2.69805 0.971954 8.78358
32 1 1.30325 0.734485 8.47183
11 1 0.701256 0.848079 7.25
17 1 2.60125 2.20131 6.08983
28 1 0.329807 0.964168 9.65908
29 1 0.326154 2.31317 10.2339
30 1 1.41376 2.71248 10.9978
38 1 2.66398 2.01726 10.8866
7 1 0.349924 4.86306 1.49308
6 1 0.962747 3.82804 0.785615
45 1 0.925336 5.91037 2.11451
14 1 2.22817 3.60724 6.58114
22 1 0.887942 3.95941 7.06196
63 1 0.712271 4.76085 8.32966
34 1 1.35678 3.9776 11.6509
64 1 1.77111 5.08374 10.7162
66 1 1.89408 4.70044 9.36775
39 1 -0.0297884 8.73073 0.786787
43 1 2.24202 8.1166 0.784753
42 1 1.10807 8.23333 1.68898
54 1 2.34184 6.59238 5.589
50 1 2.02963 8.76491 3.85334
52 1 0.949344 6.42779 5.62404
40 1 0.744255 6.55335 3.27345
60 1 2.55273 7.87289 4.96739
53 1 0.250575 6.23149 4.4652
41 1 1.23873 7.90781 2.99376
108 1 1.43141 8.5432 8.64696
67 1 1.79704 7.17901 8.37482
71 1 0.747721 6.26289 8.02451
59 1 0.226028 6.63986 6.86437
77 1 1.98113 6.32319 11.4085
76 1 1.68797 7.67398 11.7304
75 1 1.17581 8.88442 11.0695
89 1 1.42194 10.7197 0.597629
84 1 1.38176 10.6268 2.1686
80 1 0.710208 9.72373 -0.142756
83 1 2.27994 10.0157 3.22648
21 1 2.02307 11.6743 5.0878
96 1 1.13516 10.6094 5.44636
176 1 -0.230874 10.6706 5.80341
109 1 0.333484 9.14476 8.08311
107 1 1.76955 9.25528 9.77238
3 1 5.05914 1.48313 1.95054
1 1 3.80405 1.76726 1.9637
16 1 4.15223 0.106697 5.41269
18 1 3.95536 1.52926 5.82846
26 1 5.95039 0.92243 8.86304
24 1 5.62855 2.33843 8.6597
10 1 5.09437 2.09223 6.31577
9 1 5.81661 2.86211 7.23787
25 1 3.14175 2.09985 9.5907
36 1 2.93446 0.799498 11.6164
48 1 4.03739 4.8547 0.444454
8 1 3.18391 3.90306 2.49466
46 1 4.3045 4.5986 1.86972
44 1 5.42951 5.08492 2.63906
56 1 4.95693 5.84945 5.5725
58 1 5.7847 4.62025 5.79466
70 1 3.13887 5.11644 8.59434
57 1 3.06042 4.77625 7.07802
51 1 3.4725 5.84961 5.99836
78 1 4.83402 4.61739 11.5604
68 1 4.25585 4.42749 9.21908
69 1 4.83323 5.19569 10.2669
37 1 5.78834 3.62689 11.6407
27 1 4.27632 2.98801 9.23906
47 1 4.82052 7.65509 2.57836
82 1 4.69122 8.62783 1.45349
90 1 3.42331 9.04716 0.92311
49 1 5.65457 6.50263 2.68336
55 1 5.72582 7.12614 5.50043
92 1 4.82274 8.60713 3.84567
73 1 4.16999 7.79652 8.59742
62 1 5.57565 7.51145 8.02983
61 1 5.61707 8.19327 6.63572
65 1 3.18193 6.79479 8.52964
72 1 5.40092 6.43296 10.0102
81 1 5.33686 7.5918 10.8105
110 1 5.9161 8.96133 10.7677
88 1 3.55664 11.2788 1.84473
85 1 3.04999 10.6271 0.45182
91 1 5.79895 9.38517 1.09809
20 1 3.32308 11.6433 4.55297
94 1 5.57265 11.8329 5.23211
97 1 5.61557 10.3333 5.33535
87 1 3.35403 10.8852 3.29171
95 1 5.95582 9.53371 4.12779
93 1 5.27566 9.71892 6.56687
100 1 5.25588 10.669 7.73923
101 1 5.41497 9.74544 8.79793
33 1 3.63285 12.2054 9.02181
106 1 4.97233 12.1192 8.24953
102 1 4.16895 9.04992 9.13217
98 1 3.40942 11.0954 10.1178
103 1 3.35091 11.614 11.5055
99 1 3.16474 9.82236 9.77829
86 1 5.88659 9.7495 11.9596
114 1 8.69997 1.73452 0.384229
2 1 6.1584 1.48812 2.67359
15 1 6.91316 0.20727 4.90006
19 1 6.89951 0.790356 3.48741
121 1 8.14654 -0.0059201 5.63181
129 1 8.36403 0.478267 9.49168
130 1 8.15019 2.4824 11.5367
137 1 7.02706 0.501093 9.87695
134 1 6.74242 2.75541 11.0531
147 1 7.67962 4.24815 2.48365
139 1 9.01806 4.78056 2.28571
141 1 6.48121 4.29429 3.40396
150 1 8.13171 3.79236 5.05151
156 1 6.78549 4.3049 4.79209
151 1 8.47451 5.32383 6.95682
166 1 7.43263 4.62864 7.73796
23 1 6.20952 4.15708 7.14204
167 1 7.66121 4.00188 9.07201
165 1 8.74127 4.46461 9.93949
35 1 6.67182 3.02339 9.54066
171 1 7.99709 8.18652 1.4456
140 1 8.22119 7.55199 0.127308
142 1 8.14201 7.29404 2.59075
145 1 8.3711 6.23042 0.252067
144 1 6.95927 6.86016 3.35763
148 1 6.91351 6.95545 4.69499
154 1 8.2252 7.10767 5.35804
153 1 8.29222 6.74567 6.63497
162 1 8.45718 7.65254 7.67934
159 1 9.12617 7.14199 8.99169
188 1 8.30532 8.28688 11.0837
160 1 7.83417 7.42539 9.91208
74 1 6.37449 6.8537 9.04539
169 1 7.02278 9.24723 1.79218
174 1 8.07067 10.8242 3.0978
170 1 7.06977 9.76965 3.23222
177 1 9.01333 9.6502 6.27445
178 1 8.89975 11.0911 6.32816
180 1 7.87841 9.88434 8.61293
181 1 8.45957 11.2384 8.65521
184 1 8.47221 9.0733 7.48351
104 1 6.53724 9.48715 9.53228
115 1 10.6866 1.46687 2.23746
112 1 9.83367 1.35102 1.09162
116 1 12.0282 0.950632 2.67715
111 1 10.0819 2.03378 3.47041
126 1 11.1792 0.0384127 4.50329
120 1 10.1849 1.03917 4.5008
123 1 9.17367 0.957037 5.45821
127 1 10.2259 0.641848 7.79493
189 1 11.5953 0.220101 7.41883
131 1 9.55646 1.34304 9.01011
135 1 10.1737 2.44521 9.82094
119 1 9.93616 4.4312 1.26807
117 1 11.3156 4.52063 1.96642
146 1 11.0875 4.4794 3.48588
124 1 9.61034 3.66462 5.17377
128 1 10.3278 3.34311 3.97862
157 1 11.0945 5.78029 4.02722
161 1 10.4306 5.09462 8.48448
155 1 9.81457 4.8744 7.10224
122 1 11.8225 3.86728 6.47432
125 1 10.518 4.01739 6.23682
133 1 11.5316 4.44288 8.96306
163 1 9.43933 5.5718 9.2469
136 1 9.28055 3.30656 10.813
132 1 11.4397 3.02982 9.7321
113 1 9.78768 4.03818 12.186
143 1 9.11076 6.2366 2.86908
168 1 11.1283 7.92446 0.398184
149 1 9.36737 7.64574 4.75077
138 1 9.98063 6.58027 3.92612
175 1 9.58557 9.08314 5.02158
152 1 11.3852 7.53443 6.76729
158 1 11.3136 7.44702 10.2347
164 1 10.3809 7.9746 9.24294
79 1 11.055 7.183 11.5139
172 1 10.2675 10.0632 4.26256
173 1 11.1457 10.9225 4.74504
179 1 9.40126 10.735 3.45718
182 1 11.455 9.96799 8.1044
186 1 11.6424 11.1002 7.15296
185 1 9.41543 11.6156 7.60384
183 1 10.5704 9.31797 9.00351
187 1 10.1048 10.058 10.1406
190 1 10.7605 11.3483 10.3565
191 1 9.23371 9.30277 11.0893
105 1 11.8029 12.1718 10.2264
ITEM: TIMESTEP
3000
ITEM: NUMBER OF ATOMS
191
ITEM: BOX BOUNDS pp pp pp
-2.2476992914392652e-01 1.2224769929143976e+01
-2.2476992914392652e-01 1.2224769929143976e+01
-2.2476992914392652e-01 1.2224769929143976e+01
ITEM: ATOMS id type x y z
4 1 1.59528 2.53374 1.39397
12 1 1.13375 0.579314 5.01485
118 1 -0.0316922 0.7735 3.96614
31 1 2.85091 0.865085 8.92715
32 1 1.34307 0.648566 8.80015
11 1 0.664297 0.78438 7.48597
13 1 1.40702 1.1904 6.30111
17 1 2.61182 2.13957 6.1509
28 1 0.401284 0.811074 9.82279
29 1 0.340131 2.12062 10.298
30 1 1.42172 2.62521 11.1918
38 1 2.68996 1.9524 11.006
7 1 0.118812 4.48788 1.58542
6 1 0.85965 3.59415 0.823507
45 1 0.976602 5.26701 2.43515
14 1 2.1749 3.57471 6.63247
63 1 0.553114 5.05292 8.89808
22 1 0.5876 3.7293 6.36378
57 1 2.89673 4.6949 7.08582
34 1 1.35055 3.90657 11.9093
64 1 1.86811 4.93512 11.1194
66 1 1.72052 4.78697 9.51231
39 1 -0.0903157 8.6291 0.668369
43 1 2.30265 8.09865 0.760859
42 1 1.04411 8.02936 1.4954
41 1 1.23808 7.70457 2.9324
54 1 2.21321 6.78566 5.67669
50 1 1.8423 8.6604 3.80605
52 1 0.722197 6.17028 5.64776
60 1 2.35414 8.05733 5.08137
40 1 0.947967 6.4179 3.2225
53 1 -0.089511 6.11701 4.43023
108 1 1.46975 8.64645 8.58593
67 1 1.78558 7.27769 8.35317
71 1 0.71209 6.27989 8.16249
59 1 0.0459374 6.56188 6.92042
109 1 0.471157 9.1663 7.75385
77 1 2.33118 6.26302 11.4904
76 1 2.05929 7.56759 11.7268
75 1 1.28111 8.65573 11.0696
107 1 1.8992 9.17477 9.80495
89 1 1.34371 10.3775 0.529712
84 1 0.989565 10.4557 2.05206
85 1 2.89994 10.6116 0.365513
83 1 2.00926 9.97566 3.07872
21 1 1.7002 11.7021 4.91594
96 1 0.960402 10.7086 5.65765
80 1 0.688916 9.59255 12.1749
3 1 5.18019 1.62551 2.2719
1 1 3.8333 1.71402 2.37966
5 1 2.82998 2.6593 2.05238
16 1 4.08434 0.018184 5.28071
18 1 3.83607 1.42945 5.99696
10 1 5.07487 1.97808 6.50258
24 1 5.52093 2.77671 8.79539
9 1 5.57482 2.95336 7.37398
25 1 3.29143 2.0663 9.71929
36 1 2.71448 0.552409 11.5864
48 1 4.72664 5.21731 0.364673
8 1 3.43996 4.03875 1.96956
46 1 4.46028 5.02121 1.70051
44 1 5.34422 5.43315 2.61986
56 1 4.78833 5.81639 5.60979
58 1 5.72787 4.65405 5.58558
70 1 3.05192 5.22777 8.45273
51 1 3.21669 5.68953 6.0079
23 1 6.20849 4.11566 6.8561
78 1 5.10657 4.47194 11.7473
68 1 4.11272 4.66292 9.39354
69 1 5.11997 5.1034 10.4473
37 1 5.9981 3.41215 11.8169
27 1 4.25017 3.13665 9.3146
47 1 4.75518 8.01875 2.37174
82 1 4.64158 8.7554 1.12265
49 1 5.57867 6.89307 2.69957
55 1 5.66057 7.0965 5.63282
92 1 4.78703 9.07567 3.41572
73 1 4.23583 7.5288 8.64314
62 1 5.59078 7.32034 8.04923
61 1 5.58648 8.05137 6.8079
65 1 3.10221 6.72373 8.44805
72 1 5.86137 6.421 10.255
102 1 4.33236 8.93439 9.19534
81 1 5.69191 7.60672 11.0017
88 1 3.41409 11.3049 1.60725
91 1 5.77482 9.5053 0.829191
90 1 3.28195 9.12781 0.798471
20 1 3.1062 11.73 4.40038
94 1 5.54509 11.8265 5.494
97 1 5.64224 10.364 5.32856
87 1 2.99951 11.0377 3.02191
95 1 5.80007 9.95409 3.87203
93 1 5.43617 9.56892 6.53535
100 1 5.3994 10.5116 7.66841
101 1 5.55107 9.74516 8.93579
106 1 4.82962 11.7932 8.13356
33 1 3.63206 12.0111 9.00168
98 1 3.16293 11.1791 10.1102
99 1 3.11867 9.76996 9.84941
103 1 3.05725 11.5994 11.4713
86 1 5.96887 9.93137 12.0063
114 1 8.87194 1.62154 -0.100453
15 1 6.76236 0.0370626 5.20552
19 1 6.5463 1.18701 4.54113
123 1 9.05457 0.597063 5.21524
2 1 6.18602 1.52058 3.28858
26 1 5.69695 0.224216 8.66172
129 1 8.24501 0.0553114 9.47339
130 1 8.21953 2.42567 11.4226
134 1 6.9441 2.81168 10.8663
137 1 6.8685 0.383538 9.44953
147 1 7.56864 4.56757 2.29332
139 1 8.89346 5.19878 1.86379
141 1 6.41185 4.69713 3.16126
150 1 8.0883 4.14168 4.84787
156 1 6.77225 4.44637 4.54858
151 1 8.4629 5.45098 7.04508
166 1 7.27409 4.66649 7.598
167 1 7.57845 4.07593 8.98919
165 1 8.63806 4.36079 9.76694
35 1 6.70841 3.14569 9.48904
171 1 7.86979 8.23216 1.14228
140 1 8.16642 7.59908 -0.162353
142 1 8.05021 7.35583 2.35338
145 1 8.02996 6.21205 -0.227238
143 1 9.19052 6.54444 2.56547
144 1 6.82977 7.24184 3.31994
148 1 6.94371 7.13976 4.78428
154 1 8.24705 7.12633 5.47312
153 1 8.4261 6.83742 6.86989
162 1 8.88099 7.73316 7.837
74 1 6.71039 6.7869 9.16523
188 1 8.47167 8.31691 11.0903
160 1 7.98691 7.51036 9.95802
110 1 6.2335 8.92909 10.9406
169 1 6.89251 9.27556 1.55929
174 1 8.25025 10.5001 2.96936
170 1 6.9502 10.0071 2.76928
121 1 8.07578 12.0924 5.58793
177 1 8.58827 9.87593 6.39496
178 1 8.75922 11.2329 6.44378
180 1 8.12521 9.91931 8.8744
181 1 8.59533 11.3009 8.75499
184 1 8.54333 9.13119 7.75113
104 1 6.78923 9.65872 9.65074
115 1 10.6338 1.72804 2.08169
112 1 9.92165 1.7338 0.818261
116 1 12.0134 1.26912 2.51046
111 1 10.1214 2.14077 3.48307
120 1 10.1225 1.08874 4.49071
126 1 11.1582 0.140051 4.37441
127 1 10.3182 0.467398 8.10035
189 1 11.6463 0.0232972 7.69932
135 1 10.208 2.36697 9.84803
131 1 9.60126 1.09677 9.16658
119 1 10.013 4.57123 1.0321
117 1 11.1479 4.63433 1.86356
113 1 9.89465 4.00314 -0.311422
146 1 10.9029 4.62167 3.3192
124 1 9.41273 3.89427 5.05724
128 1 10.1173 3.53326 3.8878
161 1 10.5549 4.91201 8.43812
155 1 9.81728 4.7953 7.22278
133 1 11.7747 4.2776 8.98852
125 1 10.3354 4.0907 6.21526
122 1 11.698 3.71234 6.28842
163 1 9.48273 5.41299 9.31327
136 1 9.29565 3.27638 10.7756
132 1 11.6225 3.01885 9.74197
168 1 11.2244 7.72427 0.475081
149 1 9.27855 7.77791 4.68271
138 1 9.91657 6.86129 3.82939
157 1 11.07 5.9592 3.95766
152 1 11.2374 7.14572 6.77895
158 1 11.4398 7.2 10.4392
164 1 10.6278 7.81572 9.49222
79 1 11.314 6.91146 11.7454
159 1 9.28563 7.12272 9.06518
172 1 10.2111 10.2563 4.48896
173 1 11.1666 11.2497 4.8656
179 1 9.57637 10.5698 3.29786
176 1 12.0761 10.93 5.99364
175 1 9.48516 9.17844 5.24186
182 1 11.606 9.78717 7.97004
186 1 11.5957 11.0171 7.29068
185 1 9.3924 11.7515 7.61219
187 1 10.4304 10.0762 10.3897
190 1 11.3742 11.1637 10.765
105 1 12.1924 12.1201 10.3204
191 1 9.36882 9.45126 11.1728
183 1 10.8741 9.32776 9.20221
ITEM: TIMESTEP
4000
ITEM: NUMBER OF ATOMS
191
ITEM: BOX BOUNDS pp pp pp
-1.7705936225880348e-01 1.2177059362258838e+01
-1.7705936225880348e-01 1.2177059362258838e+01
-1.7705936225880348e-01 1.2177059362258838e+01
ITEM: ATOMS id type x y z
4 1 1.94743 2.89958 1.437
12 1 0.79201 0.385907 5.01017
118 1 -0.0735282 0.50757 3.94747
17 1 2.32794 2.07721 6.29937
32 1 1.17862 0.716307 8.58089
11 1 0.295885 0.725823 7.44441
13 1 1.13165 1.20402 6.18456
31 1 2.64384 0.958152 8.58551
28 1 0.51459 0.723296 9.85626
29 1 0.214847 2.06276 10.1174
30 1 1.2273 2.52705 11.0415
38 1 2.57848 1.89978 10.9357
36 1 2.80989 0.61976 11.6398
7 1 0.33742 4.63589 1.35828
6 1 1.17609 3.71673 0.594665
45 1 1.09924 5.28335 2.28553
14 1 2.06561 3.54146 6.57048
63 1 0.381592 5.21278 8.93804
22 1 0.671993 3.83069 6.55732
34 1 1.31461 3.87509 11.5966
64 1 1.81938 4.95637 10.8231
66 1 1.71965 4.84564 9.4053
39 1 0.411694 8.24092 0.854063
43 1 2.79833 7.81057 0.675568
42 1 1.69823 7.67481 1.59547
41 1 1.53976 7.49281 2.88343
54 1 2.50351 6.71925 5.52503
50 1 1.74299 8.57799 3.78324
52 1 0.962269 6.50888 5.65637
60 1 2.46415 8.10566 4.97284
40 1 1.11027 6.24606 3.29128
53 1 0.258949 6.05051 4.37951
59 1 0.172589 6.54793 6.8792
67 1 1.78674 7.29775 8.51007
71 1 0.63705 6.4055 8.13344
108 1 1.39945 8.55812 8.71805
77 1 2.1686 6.14848 11.3549
76 1 2.26766 7.44856 11.7616
75 1 1.51523 8.58935 11.1707
89 1 1.49596 10.2964 0.821654
84 1 0.955048 10.3979 2.18574
80 1 0.973766 9.22977 -0.0283197
83 1 1.79905 10.0408 3.27291
21 1 1.67683 11.6094 5.22449
96 1 0.862805 10.6572 5.75346
109 1 0.372433 9.34157 8.25093
105 1 -0.132527 11.9175 10.5525
107 1 1.88458 9.13496 9.9862
3 1 5.15628 1.56058 2.03634
1 1 3.96585 1.99232 1.87015
16 1 3.96145 0.19663 5.2051
18 1 3.64336 1.25454 6.00303
10 1 4.77495 1.85846 6.53167
26 1 5.76888 0.0956246 8.77876
24 1 5.41963 2.72903 8.78413
9 1 5.41301 2.80579 7.36594
25 1 3.12845 2.04542 9.56417
48 1 4.42574 5.32747 0.354702
8 1 3.61006 4.31425 2.39432
46 1 4.59928 5.16686 1.71979
44 1 5.74156 5.5642 2.41756
5 1 3.16367 3.03065 1.99759
56 1 4.9459 5.7892 5.59914
58 1 5.77573 4.6306 5.67044
70 1 3.02551 5.16431 8.54985
57 1 2.927 4.67948 6.97429
51 1 3.53175 5.76221 6.05361
78 1 4.93327 4.62454 11.533
68 1 4.10996 4.5133 9.36807
69 1 4.93283 5.37903 10.2534
37 1 5.85485 3.56056 11.7495
27 1 4.16696 3.03711 9.36717
47 1 4.87711 8.15363 2.44241
82 1 4.7685 8.86726 1.28195
90 1 3.58035 8.97921 0.650418
49 1 5.838 7.01619 2.5991
55 1 5.81858 7.18282 5.68356
92 1 4.8626 8.99289 3.59499
73 1 4.15997 7.73607 8.60111
62 1 5.47773 7.62125 8.00665
61 1 5.468 8.28619 6.61734
65 1 3.06269 6.85374 8.5747
72 1 5.66815 6.54434 10.13
81 1 5.79263 7.6841 11.0754
102 1 4.1238 9.00939 9.16157
88 1 3.45248 11.0935 2.01961
91 1 5.93488 9.55265 0.774002
85 1 2.93952 10.2652 0.938795
20 1 2.9663 11.776 4.5768
94 1 5.53814 11.9146 5.2438
97 1 5.69282 10.4406 5.27229
95 1 5.96163 9.75406 3.9602
87 1 3.03353 10.9429 3.41095
93 1 5.51372 9.77668 6.49868
100 1 5.20451 10.4586 7.65078
101 1 5.32088 9.80159 8.83502
106 1 4.75455 11.8186 8.07346
33 1 3.43583 11.9474 8.5837
98 1 3.23048 11.2419 9.7674
103 1 2.9955 11.8636 11.0571
99 1 3.1211 9.78404 9.78285
86 1 5.9078 10.0471 11.7779
114 1 8.80631 1.96237 0.258947
2 1 6.29709 1.28818 2.66841
15 1 6.713 0.262086 5.03321
19 1 6.86859 0.746777 3.77556
123 1 8.91856 1.02953 5.36036
121 1 8.01458 -0.0553095 5.60922
129 1 8.19817 0.0556216 9.76396
130 1 8.21911 2.56146 11.4521
134 1 6.78543 2.78715 11.0416
137 1 6.7482 0.271254 9.66669
147 1 7.95733 4.60077 2.47783
141 1 6.73061 4.81068 3.16772
150 1 8.04748 3.81846 4.80126
156 1 6.81404 4.52832 4.59367
151 1 8.45121 5.24969 7.07746
166 1 7.48005 4.42431 7.66591
23 1 6.19587 3.92526 6.82632
167 1 7.55407 4.04776 9.07131
165 1 8.61094 4.5084 9.81309
35 1 6.62667 3.1331 9.45947
171 1 7.93572 8.36312 1.33469
140 1 8.19698 7.68155 0.106368
142 1 8.18473 7.4941 2.51473
145 1 7.58987 6.49921 -0.0253219
144 1 7.01916 7.27794 3.36326
148 1 7.00002 7.10269 4.83995
154 1 8.28447 7.06899 5.47022
153 1 8.32264 6.66677 6.78538
162 1 8.86373 7.62317 7.59571
74 1 6.44752 7.10175 9.00462
184 1 8.43421 9.03405 7.57047
188 1 8.64639 8.11213 11.1988
160 1 7.9147 7.49555 9.81136
110 1 6.14067 9.0741 10.7714
169 1 7.04897 9.57404 1.56864
170 1 7.06693 9.95608 2.86968
174 1 8.28379 10.6162 3.1852
177 1 8.75264 9.77477 6.39552
178 1 8.54046 11.2111 6.53225
180 1 7.81256 9.85644 8.78213
181 1 8.33721 11.2126 8.93579
104 1 6.58533 9.56635 9.43556
115 1 10.8109 1.61193 2.11769
112 1 9.91631 1.61414 1.01141
116 1 12.1847 1.13914 2.62971
111 1 10.2134 1.98504 3.38177
120 1 9.93285 1.06387 4.41103
126 1 10.9742 0.115179 4.54221
127 1 10.1304 0.433733 8.20956
189 1 11.42 0.0800798 7.75585
135 1 10.0296 2.54563 9.92402
131 1 9.60709 1.06485 9.34096
119 1 10.0341 4.85803 1.04166
117 1 11.1815 4.48781 1.72161
139 1 9.13686 5.46004 1.97848
146 1 10.7969 4.50114 3.26281
124 1 9.41262 3.5615 4.97473
128 1 10.1016 3.36433 3.74352
157 1 11.2524 5.77569 3.98069
161 1 10.4728 4.9612 8.38617
155 1 9.78364 4.80364 7.09253
133 1 11.6179 4.36006 9.01932
125 1 10.2694 3.7588 6.08859
122 1 11.7471 3.56158 6.13792
163 1 9.43972 5.56951 9.30522
132 1 11.5006 2.90841 9.61012
136 1 9.19647 3.51686 10.7324
113 1 9.81307 4.29084 11.9223
168 1 11.6925 7.39742 0.548292
143 1 9.31226 6.70891 2.65335
149 1 9.30534 7.73364 4.8001
138 1 10.1529 6.90877 3.87109
152 1 11.4031 7.33631 6.75971
159 1 9.20612 7.13008 8.94142
158 1 11.3189 7.13119 10.2352
164 1 10.3739 7.85581 9.29878
79 1 11.1655 7.00361 11.7142
172 1 10.1691 10.2362 4.4948
173 1 10.9825 11.1925 5.03127
179 1 9.58503 10.4208 3.27121
175 1 9.597 9.15831 5.30269
182 1 11.4616 9.94835 8.28486
186 1 11.4676 11.0971 7.3956
176 1 11.8767 10.8578 6.08161
185 1 9.13127 11.7605 7.83643
187 1 10.4598 9.84942 10.4518
190 1 11.2187 11.0459 10.734
183 1 10.6786 9.23084 9.19239
191 1 9.44102 9.28413 11.1865
ITEM: TIMESTEP
5000
ITEM: NUMBER OF ATOMS
191
ITEM: BOX BOUNDS pp pp pp
-1.1878146435429759e-01 1.2118781464354322e+01
-1.1878146435429759e-01 1.2118781464354322e+01
-1.1878146435429759e-01 1.2118781464354322e+01
ITEM: ATOMS id type x y z
4 1 1.69512 2.66122 1.45063
116 1 -0.16918 1.21115 2.47501
12 1 1.12227 0.722989 4.8118
118 1 0.134958 0.673879 3.79079
17 1 2.59408 2.09941 6.13306
32 1 1.1822 0.843282 8.41772
11 1 0.437056 0.931236 7.19694
31 1 2.6954 0.989223 8.49677
13 1 1.3308 1.45431 5.98158
28 1 0.268178 0.768836 9.52807
29 1 0.136955 2.13513 10.2009
30 1 1.31684 2.67524 10.886
38 1 2.55604 2.18657 10.699
7 1 0.391398 4.74958 1.47345
6 1 1.04237 3.71843 0.738202
45 1 1.28618 5.39002 2.45465
14 1 2.20409 3.57773 6.44817
63 1 0.539224 5.03547 8.71122
22 1 0.88976 3.71776 6.29706
34 1 1.21261 3.84174 11.6683
64 1 1.76436 4.92388 10.9309
66 1 1.86614 4.79677 9.48442
39 1 0.314287 8.59111 0.993555
43 1 2.51977 7.96802 0.643237
42 1 1.42497 8.07725 1.61704
54 1 2.37525 6.79626 5.54783
50 1 1.98961 8.69132 3.89479
52 1 1.04902 6.48177 5.56865
60 1 2.53427 8.17178 5.09716
40 1 1.22299 6.45404 3.25761
53 1 0.327711 6.28581 4.36572
41 1 1.60927 7.65554 2.96777
59 1 0.174621 6.56653 6.66903
67 1 1.7688 7.31759 8.48764
71 1 0.755094 6.42383 8.05516
108 1 1.34949 8.69111 8.80451
77 1 1.93761 6.25484 11.2781
76 1 1.91367 7.55254 11.6015
75 1 1.34585 8.87109 11.1472
89 1 1.75061 10.5864 0.787213
84 1 1.2918 10.6477 2.29163
80 1 0.888731 9.60884 0.0870296
83 1 2.19099 9.96248 3.34051
21 1 1.88689 11.7017 4.90491
96 1 1.14762 10.7058 5.57615
109 1 0.321251 9.15982 7.95432
107 1 1.82031 9.34684 9.83838
3 1 5.17504 1.16026 1.60105
1 1 3.93796 1.55903 1.53855
5 1 3.03039 2.60994 1.8244
16 1 4.19794 0.107978 5.1909
18 1 3.87004 1.50674 5.8945
10 1 4.9099 2.35117 6.2292
26 1 5.70661 0.465534 8.59382
24 1 5.46946 2.70964 8.56229
33 1 3.47246 -0.227082 8.68862
25 1 3.07178 2.23608 9.32268
36 1 3.18466 1.25064 11.504
103 1 3.43638 -0.112448 11.0457
48 1 4.52319 5.06777 0.547325
8 1 3.66522 3.74297 2.42395
46 1 4.50845 4.71842 1.90073
44 1 5.531 5.25907 2.71556
70 1 3.06841 5.29113 8.66729
57 1 2.96288 4.68773 7.01843
51 1 3.56289 5.75385 6.06828
9 1 5.61765 2.99891 7.18255
78 1 5.17652 4.59071 11.5985
68 1 4.21336 4.51965 9.3821
69 1 4.92109 5.20823 10.2983
27 1 4.19092 3.18321 9.02739
37 1 6.09207 3.45921 11.8558
47 1 4.97789 7.82284 2.57134
82 1 4.89061 8.42486 1.29609
49 1 5.69654 6.66644 2.87802
90 1 3.63687 8.83598 0.705352
55 1 5.87429 7.22533 5.64288
92 1 4.86575 8.69294 3.63569
56 1 4.93748 5.89466 5.64868
73 1 4.20232 7.71776 8.74401
62 1 5.5622 7.49235 8.15594
61 1 5.69747 8.16086 6.7353
65 1 3.12627 6.78579 8.61956
72 1 5.58408 6.65216 10.4302
81 1 5.39513 8.03514 10.9495
88 1 3.7904 11.0423 1.99051
91 1 5.9388 9.45441 1.04774
85 1 3.17182 10.2073 0.80781
20 1 3.23696 11.7679 4.4397
94 1 5.51053 11.8012 5.36456
97 1 5.50083 10.3458 5.34628
87 1 3.34071 10.8542 3.30983
95 1 5.6794 9.74051 4.02131
93 1 5.36329 9.65065 6.56849
100 1 5.01408 10.5029 7.70711
101 1 5.14323 9.77997 8.95459
106 1 4.70334 11.8467 8.02791
98 1 3.32049 11.371 9.93294
99 1 3.02106 9.99636 9.78901
102 1 3.93111 9.06994 9.20681
114 1 8.94382 1.66677 0.35363
2 1 6.31383 0.926447 2.3106
15 1 6.68799 0.129208 4.78839
19 1 6.66478 0.735142 3.59391
123 1 8.99407 1.03473 5.19371
121 1 8.09142 -0.0795769 5.59726
129 1 8.14222 0.360686 9.48488
130 1 8.20667 2.35762 11.565
137 1 6.77408 0.537861 9.53778
134 1 6.84059 2.63092 10.8644
147 1 7.87455 4.25752 2.30542
141 1 6.66687 4.52931 3.16398
150 1 8.29641 4.11636 4.88054
156 1 6.96391 4.34191 4.54931
58 1 5.98645 4.75663 5.61601
151 1 8.42514 5.09722 7.1225
166 1 7.32045 4.5243 7.72291
23 1 6.29785 4.22185 6.92014
167 1 7.3872 4.09803 9.09844
165 1 8.43732 4.48318 9.95423
35 1 6.50782 2.9653 9.49164
171 1 7.83592 8.02552 1.68135
140 1 7.89548 7.64217 0.233906
142 1 8.0175 7.01168 2.72138
145 1 7.26361 6.3654 0.0342599
144 1 6.95633 6.85539 3.55681
148 1 7.0757 7.26363 4.8496
154 1 8.25709 7.06305 5.56446
153 1 8.38531 6.58809 6.86288
162 1 8.696 7.60666 7.8387
184 1 8.31817 9.07238 7.73571
188 1 8.24656 8.17873 11.2729
160 1 7.85668 7.40089 9.98286
74 1 6.47664 7.02692 9.23475
169 1 7.02411 9.21224 1.91873
174 1 8.03348 10.6267 3.42761
170 1 6.91365 9.98356 3.16172
177 1 8.78751 9.69088 6.52376
178 1 8.72628 11.0992 6.48844
180 1 7.7194 9.95406 8.77342
181 1 8.21784 11.3378 8.77567
185 1 9.12074 11.6768 7.69538
104 1 6.43582 9.6241 9.60509
110 1 6.12257 9.31771 10.868
86 1 6.14817 10.0687 12.0833
191 1 9.05182 9.31833 11.0542
115 1 10.8817 1.82104 2.13753
112 1 10.1237 1.67944 0.907902
111 1 10.2254 2.14142 3.367
120 1 10.0312 1.10868 4.30819
126 1 11.1622 0.121532 4.30139
127 1 10.0717 0.452708 7.94055
189 1 11.3024 0.118029 7.33011
135 1 9.9279 2.40775 9.9305
131 1 9.49617 1.26172 9.0211
132 1 11.3729 3.11665 9.82725
119 1 10.1249 4.57416 1.23139
117 1 11.3 4.73909 1.93303
139 1 9.02925 4.93702 2.08686
146 1 11.078 4.58743 3.34184
124 1 9.61169 3.79364 5.06688
128 1 10.4018 3.46974 3.85639
157 1 11.2467 5.89686 4.03338
161 1 10.3663 4.87851 8.52725
155 1 9.7048 4.50479 7.36169
125 1 10.3159 3.90886 6.27821
122 1 11.7527 3.69856 6.46841
163 1 9.37878 5.47787 9.37196
136 1 9.20282 3.44646 10.8063
113 1 9.95385 3.9831 12.0872
133 1 11.6086 4.36522 9.16066
168 1 11.4202 7.71122 0.683486
143 1 9.15683 6.34432 2.86231
149 1 9.43446 7.6281 4.9812
138 1 10.1158 6.76601 3.93155
175 1 9.52372 9.07606 5.33107
152 1 11.1075 7.11993 6.64622
158 1 11.325 7.48365 10.3606
164 1 10.3624 7.84225 9.3936
79 1 11.3201 7.1811 11.6949
159 1 9.12818 7.08584 9.17349
172 1 10.0959 10.0307 4.38256
173 1 11.0523 11.0333 4.79772
179 1 9.36264 10.4935 3.29764
176 1 12.0063 10.4898 5.8374
182 1 11.4266 9.84575 8.0317
186 1 11.4278 10.878 7.10907
183 1 10.4801 9.26753 9.00856
187 1 10.0432 10.0267 10.2374
190 1 10.8982 11.0892 10.6553
105 1 11.8501 11.9597 10.2663
ITEM: TIMESTEP
6000
ITEM: NUMBER OF ATOMS
191
ITEM: BOX BOUNDS pp pp pp
-1.3727711003631277e-01 1.2137277110036344e+01
-1.3727711003631277e-01 1.2137277110036344e+01
-1.3727711003631277e-01 1.2137277110036344e+01
ITEM: ATOMS id type x y z
116 1 -0.189875 0.968338 2.37555
12 1 1.1475 0.537828 4.81258
118 1 0.123182 0.453644 3.84394
31 1 2.77074 1.03305 8.80966
32 1 1.27712 0.808067 8.58139
11 1 0.564316 0.959588 7.21764
17 1 2.5291 2.05104 6.25497
13 1 1.27781 1.32039 6.06682
28 1 0.345713 0.929787 9.60836
29 1 0.07534 2.22092 10.151
30 1 1.22364 2.68241 10.8582
38 1 2.39094 2.09951 10.8446
36 1 2.63627 0.826138 11.5591
7 1 0.384462 4.5564 1.4824
6 1 1.06736 3.70058 0.598234
45 1 1.24353 5.45315 2.24475
4 1 1.8389 2.7222 1.20418
5 1 2.94703 2.92892 1.96555