ITEM: TIMESTEP
1000
ITEM: NUMBER OF ATOMS
191
ITEM: BOX BOUNDS pp pp pp
0.0000000000000000e+00 1.2000000000000000e+01
0.0000000000000000e+00 1.2000000000000000e+01
0.0000000000000000e+00 1.2000000000000000e+01
ITEM: ATOMS id type x y z
12 1 1.20509 0.848646 4.8824
1 1 2.45416 2.21262 3.44646
118 1 0.0568909 0.931156 4.21542
31 1 2.7963 1.20012 8.59879
32 1 1.33362 1.11411 8.47168
11 1 0.524598 1.20419 7.34151
17 1 2.71238 2.40746 6.16634
13 1 1.38231 1.67759 6.10224
28 1 0.600435 1.06936 9.68613
29 1 0.380463 2.49177 10.0643
30 1 1.54051 2.88833 10.6729
38 1 2.76966 2.1392 10.5977
4 1 2.18611 3.42645 1.49308
6 1 1.37529 4.1638 0.681185
7 1 0.316389 4.7799 1.23673
5 1 2.72351 3.38718 2.80547
53 1 0.358511 5.83537 4.1516
14 1 2.48962 3.77126 6.47623
22 1 1.04066 4.12647 6.92577
63 1 0.861504 4.89394 8.19573
34 1 1.60511 4.1806 11.3394
64 1 1.84804 5.17285 10.4568
66 1 1.97643 4.87993 9.13738
39 1 0.181589 8.50532 0.712513
43 1 2.65505 8.15867 0.868042
42 1 1.41328 7.99508 1.5577
45 1 0.410238 6.0196 1.6437
40 1 0.607622 6.50916 2.98891
41 1 1.37971 7.70322 2.91852
54 1 2.3679 6.52629 5.21292
50 1 2.14686 8.46843 3.69532
52 1 1.04645 6.21113 5.25484
60 1 2.43505 7.90596 4.88676
59 1 0.319578 6.54721 6.41356
67 1 1.82448 7.31926 8.10585
71 1 0.824954 6.39916 7.65354
108 1 1.50378 8.72625 8.5489
75 1 1.63839 8.73584 10.9
76 1 2.39605 7.75422 11.4558
77 1 2.36185 6.3648 11.1126
89 1 1.68557 10.4378 0.778156
84 1 1.26087 10.293 2.26055
96 1 1.39937 10.5244 5.80047
21 1 1.92503 11.6793 5.0829
83 1 1.97272 9.86486 3.45811
109 1 0.460584 9.13924 7.92927
107 1 1.96788 9.23301 9.68906
80 1 0.964113 9.47731 11.8748
3 1 3.46182 1.23958 3.5408
16 1 4.12741 0.164967 5.50129
2 1 4.94593 1.47411 3.18049
9 1 5.79569 2.82726 7.153
24 1 5.70492 2.43076 8.65892
26 1 5.83625 0.933983 8.58776
10 1 5.33926 2.06308 6.16372
18 1 3.95423 1.52412 6.0336
25 1 3.47206 2.22466 9.36298
36 1 3.1563 1.05003 11.3995
48 1 4.33373 4.65548 0.709691
44 1 5.99016 5.22315 2.44868
46 1 4.83482 4.57961 2.03733
8 1 3.91788 4.06314 2.96916
58 1 5.89245 4.77236 5.62939
56 1 5.05263 5.94244 5.47293
51 1 3.61934 5.79543 5.77172
70 1 3.40603 5.25056 8.37877
57 1 3.29911 4.88631 6.83742
78 1 5.12797 4.29346 11.5245
68 1 4.40579 4.42649 9.42396
69 1 5.059 5.21573 10.3426
27 1 4.47806 3.0505 9.22505
47 1 5.19546 7.94796 2.43487
82 1 4.90455 8.78538 1.39948
92 1 5.0144 8.61295 3.70179
55 1 5.95341 7.18716 5.53858
73 1 4.19161 7.74413 8.55678
62 1 5.53684 7.49362 7.95057
65 1 3.19209 6.8109 8.4114
61 1 5.63671 8.06901 6.60218
72 1 5.55993 6.5066 10.3029
81 1 5.54413 7.76087 11.0694
88 1 3.49987 11.0428 2.1632
85 1 3.16455 10.4098 1.00517
91 1 5.91697 9.71594 1.04399
90 1 3.67653 9.11918 1.0001
94 1 5.51007 11.7138 5.47563
97 1 5.54044 10.2859 5.25334
87 1 3.11333 10.7168 3.43176
20 1 3.18504 11.8843 4.2963
95 1 5.89847 9.73487 4.04418
93 1 5.64775 9.60237 6.45837
100 1 5.39615 10.4731 7.59658
101 1 5.51693 9.71445 8.84227
106 1 4.93343 11.8978 7.96221
33 1 3.59975 11.9983 8.55921
98 1 3.50555 11.1841 9.68144
103 1 3.22428 11.7935 10.9441
99 1 3.27887 9.79207 9.59418
102 1 4.32834 9.07969 9.01661
114 1 8.60925 1.0636 0.341457
15 1 6.28686 1.03729 5.36838
19 1 6.14573 1.31933 3.9212
121 1 7.76238 0.614062 5.91285
128 1 8.88866 2.97665 3.70562
129 1 8.35478 0.18746 9.37563
130 1 8.26103 2.13424 11.4211
137 1 7.02759 0.504277 9.32774
134 1 6.96563 2.54662 10.8961
35 1 6.87822 2.8466 9.43909
147 1 8.12484 3.78741 2.81579
139 1 8.95702 4.71955 2.11283
141 1 6.86754 4.534 3.29409
150 1 8.14886 4.52859 5.47536
156 1 6.87198 4.6036 4.71775
151 1 8.27125 5.07366 6.80782
166 1 7.22697 4.60737 7.64401
23 1 6.11789 4.13615 6.99852
167 1 7.57641 4.01855 8.90824
165 1 8.33637 4.89564 9.7276
37 1 6.09022 3.28999 11.648
49 1 6.32647 6.66491 2.15676
140 1 7.99375 7.68454 0.383597
142 1 8.58072 7.38481 2.5869
145 1 6.96274 6.67636 0.681379
171 1 8.11027 8.45739 1.63405
144 1 7.31434 7.04926 3.2988
148 1 7.18411 7.1601 4.73754
154 1 8.35935 7.1502 5.53352
153 1 8.1698 6.55922 6.73473
162 1 8.58165 7.49694 7.74916
184 1 8.14193 8.93666 7.51019
188 1 7.99517 8.26872 11.0671
74 1 6.48352 6.90777 9.14608
160 1 7.81743 7.2395 9.89896
169 1 7.09657 9.53003 1.87342
174 1 7.97704 10.9841 3.56656
170 1 6.93637 10.1165 3.21665
177 1 8.34338 9.55504 6.12299
178 1 8.10362 11.1346 6.34415
180 1 7.89147 9.70405 8.60484
181 1 8.60636 10.9521 8.71045
185 1 8.91145 11.4014 7.40967
104 1 6.73251 9.58153 9.41521
110 1 6.49943 9.08283 10.8292
86 1 6.07477 10.1283 11.7812
115 1 10.3233 1.23323 2.44296
116 1 11.6482 0.993539 2.82226
112 1 9.70433 1.22206 1.2498
111 1 9.4857 1.66562 3.53701
126 1 10.9251 0.207048 4.75638
120 1 9.76984 1.11383 4.82804
123 1 9.07273 1.35593 5.95414
127 1 9.85358 0.871564 7.35898
189 1 11.3665 0.497339 7.24559
131 1 9.26943 1.27343 8.8753
135 1 9.92736 2.45712 9.72437
136 1 9.31994 2.91918 10.9834
105 1 11.8296 0.0101488 10.1355
119 1 10.0568 4.12402 1.1601
117 1 11.2913 4.10232 1.87838
157 1 11.3328 4.9189 4.17809
124 1 9.18021 3.70881 5.01453
146 1 11.3855 3.97031 3.30822
138 1 10.2186 5.74187 3.89366
161 1 10.2777 4.94223 8.31128
155 1 9.72347 4.77316 7.05922
133 1 11.4486 4.36918 8.8939
122 1 11.7791 3.7662 6.22739
125 1 10.4313 4.01175 6.05778
163 1 9.44619 5.61201 9.18789
113 1 9.86272 3.82653 11.855
132 1 11.2015 3.12199 9.46298
143 1 9.41135 6.11047 2.82495
168 1 11.139 7.60473 0.563201
149 1 9.69535 7.6531 5.41856
152 1 10.827 7.13612 6.19421
159 1 9.168 7.09184 8.9772
158 1 11.2905 7.02504 10.2119
164 1 10.4181 7.84684 9.49228
79 1 11.2299 6.74242 11.5198
172 1 10.0074 10.0659 4.56232
173 1 11.0291 10.7553 5.07982
175 1 9.42791 9.05859 5.30838
179 1 9.28849 10.6904 3.58403
182 1 11.2861 9.8532 8.11419
186 1 11.4828 11.032 7.29613
176 1 11.9937 10.5963 6.03074
187 1 10.2157 9.88624 10.5578
190 1 10.9942 11.1135 10.7664
183 1 10.5117 9.3033 9.2034
191 1 9.03 9.33326 11.045
ITEM: TIMESTEP
2000
ITEM: NUMBER OF ATOMS
191
ITEM: BOX BOUNDS pp pp pp
-1.1303558824296082e-01 1.2113035588242999e+01
-1.1303558824296082e-01 1.2113035588242999e+01
-1.1303558824296082e-01 1.2113035588242999e+01
ITEM: ATOMS id type x y z
5 1 2.72962 2.77626 2.47488
4 1 1.64528 2.78562 1.4913
12 1 1.19242 0.665339 4.7146
118 1 0.122702 0.389453 3.78434
31 1 2.55829 0.758314 8.54436
32 1 1.15247 0.702362 8.41903
11 1 0.494672 1.00872 7.24942
13 1 1.2636 1.38092 6.02348
17 1 2.49813 2.09311 6.25983
28 1 0.224639 0.951037 9.66108
29 1 0.21835 2.36247 10.2329
30 1 1.39512 2.65471 10.9932
38 1 2.5542 1.89442 10.7757
7 1 0.360132 4.869 1.32755
6 1 1.17424 3.85366 0.685682
45 1 1.10251 5.93354 1.88536
14 1 2.25 3.52486 6.60186
22 1 0.878715 3.97378 7.02036
63 1 0.635124 4.81856 8.31234
34 1 1.38292 3.88161 11.5743
64 1 1.86272 4.98364 10.7673
66 1 1.91804 4.81082 9.24814
39 1 0.235596 8.82064 0.807004
42 1 1.43952 8.36892 1.5714
43 1 2.47951 8.17907 0.729055
41 1 1.60389 7.88859 2.85042
54 1 2.40011 6.64738 5.53687
50 1 2.25006 8.71554 3.82099
52 1 0.936709 6.35509 5.61714
40 1 1.01126 6.65308 3.08921
60 1 2.70725 8.015 4.98648
53 1 0.358182 6.21619 4.3054
108 1 1.38247 8.50185 8.50141
67 1 1.79474 7.16878 8.19271
71 1 0.641346 6.29003 7.8474
59 1 -0.00821752 6.57143 6.61859
109 1 0.184994 9.01088 8.03408
77 1 2.2094 6.26494 11.3473
76 1 2.01296 7.71552 11.488
75 1 1.45125 8.91275 10.8996
89 1 1.68045 10.7171 0.465533
84 1 1.42819 10.6815 1.92478
83 1 2.30409 10.06 3.19792
21 1 2.00335 11.7001 5.14035
96 1 1.1957 10.7226 5.70759
107 1 1.93302 9.33518 9.54499
80 1 0.946579 9.72019 11.9451
3 1 4.79964 1.24664 2.28377
1 1 3.62019 1.71218 2.36148
16 1 4.17331 -0.07217 5.43884
18 1 3.89886 1.28019 5.74261
10 1 4.92587 1.96315 6.30534
24 1 5.57055 2.30046 8.66101
26 1 5.76729 0.809172 8.9662
9 1 5.80817 2.68697 7.20338
25 1 3.09199 1.9796 9.31881
36 1 2.9823 0.697708 11.43
27 1 4.2266 2.95671 9.31256
48 1 4.16 5.09449 0.776545
44 1 5.48992 5.26345 2.75449
46 1 4.27271 4.75152 2.08706
8 1 3.36109 3.94762 2.83043
56 1 5.12876 5.85984 5.65808
51 1 3.61354 5.81376 5.93746
70 1 3.1416 5.08491 8.29828
57 1 3.06807 4.62618 6.83477
78 1 4.8058 4.69663 11.71
68 1 4.23996 4.42111 9.2326
69 1 4.66804 5.29513 10.3095
37 1 5.73279 3.60955 11.7191
47 1 4.96966 7.7488 2.29457
82 1 4.74222 8.78294 1.34881
49 1 5.97495 6.61832 2.30163
55 1 5.89159 7.02153 5.52541
92 1 5.03412 8.39809 3.68483
73 1 4.14742 7.79095 8.56697
62 1 5.37341 7.40659 7.93028
61 1 5.7459 7.98206 6.74254
65 1 3.18291 6.85474 8.30228
72 1 5.17212 6.54249 10.1974
81 1 5.35973 7.71134 11.0899
102 1 4.36725 8.99278 9.15926
88 1 3.69389 11.4091 1.94119
85 1 3.28533 10.7434 0.404201
91 1 5.97499 9.70502 1.1052
90 1 3.45239 9.25903 0.732914
94 1 5.62851 11.7992 5.38398
87 1 3.35562 11.0786 3.24775
20 1 3.27304 11.4366 4.60143
97 1 5.57772 10.3008 5.29293
95 1 5.79116 9.5943 3.94207
93 1 5.41259 9.58719 6.56011
100 1 5.32551 10.5631 7.73847
101 1 5.49706 9.72676 8.93222
106 1 4.96145 11.957 8.14102
33 1 3.57106 12.0093 8.81638
98 1 3.48251 11.096 9.9893
103 1 3.48835 11.5927 11.3917
99 1 3.30321 9.74227 9.65717
114 1 8.55951 1.98973 0.54969
2 1 6.12085 1.23202 2.71814
15 1 6.87801 0.0850063 4.91586
19 1 6.94183 0.649084 3.64376
121 1 8.15843 -0.0203595 5.66642
129 1 8.08968 0.34187 9.51965
137 1 6.74737 0.336034 9.94706
130 1 7.94625 2.55754 11.5728
134 1 6.65272 2.87366 11.046
147 1 7.82753 4.72762 2.33696
141 1 6.58043 4.48376 3.18854
150 1 8.17361 3.7242 4.83479
156 1 6.76004 4.10352 4.58855
58 1 5.99246 4.61628 5.65203
151 1 8.52805 5.2421 7.25796
166 1 7.49685 4.42702 7.72862
23 1 6.32478 4.03228 6.92226
165 1 8.50949 4.43047 9.9493
167 1 7.43916 4.05025 9.11498
35 1 6.48317 3.017 9.60592
171 1 7.97236 8.39074 1.5774
140 1 7.63483 7.68627 0.358594
142 1 8.36839 7.41723 2.57392
145 1 6.67075 6.6712 0.834337
144 1 7.16928 6.88472 3.44153
148 1 7.21643 6.90888 4.84368
154 1 8.45303 6.86551 5.58882
153 1 8.35862 6.59828 6.90267
162 1 8.54601 7.60579 7.79771
184 1 8.29476 9.03621 7.65158
188 1 7.83068 8.40275 11.222
160 1 7.62172 7.22296 10.0145
74 1 6.23925 6.80711 9.20654
110 1 6.57616 9.01297 10.946
159 1 8.94182 6.97406 9.06388
169 1 7.09116 9.43904 1.89332
174 1 8.09076 10.575 3.62908
170 1 6.91046 9.83903 3.18819
177 1 9.01729 9.70405 6.42363
178 1 8.74698 11.0966 6.50711
180 1 7.7993 9.87473 8.70654
181 1 8.34635 11.3272 8.77196
104 1 6.81452 9.50971 9.61807
86 1 6.13205 10.0004 11.9403
191 1 8.99352 9.46434 11.1034
115 1 10.7491 1.44655 2.11608
112 1 9.64365 1.52016 1.16355
116 1 12.0825 0.973486 2.6439
111 1 10.2011 2.0274 3.38051
120 1 10.0876 1.11518 4.48656
126 1 11.0559 0.0766613 4.50223
123 1 9.04269 1.08734 5.46192
127 1 10.0607 0.59137 7.82799
189 1 11.4194 0.268068 7.40839
135 1 9.90651 2.45553 9.93265
131 1 9.21009 1.37409 9.25692
105 1 11.4832 0.0822873 10.1788
119 1 9.99993 4.56381 1.15244
117 1 11.369 4.47682 1.75646
139 1 9.11454 5.22266 1.90413
113 1 9.70329 4.21117 -0.1618
157 1 11.3667 5.65148 3.81692
124 1 9.69744 3.76543 4.90711
128 1 10.4565 3.36479 3.74837
146 1 11.2681 4.35438 3.13928
161 1 10.419 4.92719 8.51099
155 1 9.83098 4.67245 7.19492
125 1 10.4715 4.14526 6.1075
133 1 11.5917 4.29802 8.96638
122 1 11.9351 3.93628 6.19586
163 1 9.31667 5.50545 9.46085
132 1 11.3099 3.02596 9.6408
136 1 9.10575 3.40407 10.9277
143 1 9.42458 6.48052 2.5627
168 1 11.4124 8.05747 0.563708
149 1 9.69882 7.45712 5.14416
138 1 10.2126 6.56259 3.63618
152 1 11.0407 7.12656 6.1448
158 1 11.0855 7.25151 10.4226
164 1 10.4097 7.85463 9.31807
79 1 10.9832 7.338 11.7554
172 1 10.3215 9.99543 4.50727
173 1 11.2397 10.9843 4.96486
179 1 9.46452 10.5619 3.55501
175 1 9.70312 9.05869 5.37508
182 1 11.3747 9.96203 8.12825
186 1 11.4544 11.0353 7.26114
176 1 12.0708 10.7772 6.02378
185 1 9.23393 11.5694 7.76955
187 1 10.0364 10.1157 10.2691
190 1 10.5236 11.3098 10.5158
183 1 10.4657 9.35783 9.11524
ITEM: TIMESTEP
3000
ITEM: NUMBER OF ATOMS
191
ITEM: BOX BOUNDS pp pp pp
-2.1045465332801930e-01 1.2210454653328052e+01
-2.1045465332801930e-01 1.2210454653328052e+01
-2.1045465332801930e-01 1.2210454653328052e+01
ITEM: ATOMS id type x y z
116 1 -0.152795 1.21535 2.37438
4 1 1.65436 2.79036 1.3306
12 1 1.15943 0.559925 4.82384
118 1 0.0809129 0.770219 3.98249
31 1 2.70032 0.631044 8.95439
32 1 1.25849 0.655826 8.67033
11 1 0.524146 0.53152 7.42005
17 1 2.42176 2.2251 6.03508
13 1 1.3723 1.18064 6.05875
28 1 0.327799 0.668517 9.70125
29 1 0.114089 1.91671 10.2506
30 1 1.20809 2.53034 11.0181
38 1 2.52796 1.74417 11.0836
36 1 2.70721 0.553339 11.7725
7 1 0.0952685 4.67246 1.38485
6 1 0.904466 3.76669 0.650145
45 1 0.837713 5.62469 1.96124
5 1 2.65205 2.9581 2.2349
14 1 1.86857 3.64869 6.51467
22 1 0.537471 4.01046 6.94979
63 1 0.537626 4.64399 8.30911
57 1 2.89428 4.85267 6.85331
34 1 1.04844 3.70661 11.5887
64 1 1.58695 4.94742 10.86
66 1 1.82522 4.58169 9.23097
39 1 0.458584 8.40409 0.723256
42 1 1.68184 8.00165 1.42345
43 1 2.75689 7.96166 0.374992
41 1 1.43013 7.81785 2.72002
54 1 2.14068 6.82884 5.54073
50 1 1.85122 8.73741 3.67597
52 1 0.627159 6.41949 5.46869
40 1 0.794919 6.62166 3.04381
53 1 0.0191712 6.31604 4.1554
60 1 2.27159 8.13964 4.9807
108 1 1.49901 8.40822 8.78689
67 1 1.69434 7.09977 8.44055
71 1 0.674415 6.17048 7.87531
109 1 0.466749 9.00238 8.11464
77 1 1.90114 6.27297 11.2966
76 1 2.21799 7.59312 11.5437
75 1 1.65358 8.8811 11.1345
89 1 1.55569 10.3529 0.649497
84 1 1.10423 10.4951 2.00505
80 1 0.978642 9.44342 -0.168838
83 1 2.00507 10.0531 3.10971
21 1 1.82348 11.7771 4.82452
96 1 1.19645 10.757 5.52638
107 1 2.00158 9.11704 9.84428
3 1 4.57882 1.32669 2.54314
1 1 3.31692 1.73952 2.39247
16 1 4.12995 0.219436 5.19564
18 1 3.74458 1.66741 5.77862
2 1 5.64482 1.49864 3.17568
10 1 4.84658 2.29046 6.3699
24 1 5.60679 2.35612 8.81669
26 1 5.88024 0.734924 8.83529
25 1 3.16897 1.81188 9.6846
27 1 4.25297 2.85666 9.27271
48 1 4.86592 5.09374 0.30727
8 1 3.54463 4.05942 2.25824
46 1 4.60434 4.78902 1.6182
44 1 5.55121 5.53735 2.56637
51 1 3.33118 5.79152 5.89356
58 1 5.83402 4.82705 5.67612
56 1 4.90963 6.068 5.56819
70 1 3.11671 5.07618 8.45842
9 1 5.56187 2.90863 7.32216
78 1 4.95413 4.51997 11.5347
68 1 4.18765 4.37413 9.2727
69 1 4.83994 5.15458 10.333
37 1 5.47592 3.18636 11.4374
47 1 5.12285 8.02178 2.15092
82 1 4.85865 8.93286 1.06328
92 1 4.93504 8.62643 3.35814
55 1 5.80127 7.25075 5.46229
73 1 4.08385 7.71498 8.54355
62 1 5.57445 7.57907 8.06674
61 1 5.71177 8.27967 6.55667
65 1 3.04103 6.68697 8.62339
102 1 4.23309 8.99355 9.17595
72 1 5.4699 6.59405 10.298
81 1 5.43677 7.91645 11.0887
88 1 3.62249 11.1456 1.76092
90 1 3.61851 9.23371 0.471019
91 1 5.99136 9.73224 0.83009
85 1 2.9855 10.6903 0.243581
94 1 5.40204 11.8925 5.15809
97 1 5.4173 10.4248 5.02246
87 1 3.15751 10.9075 3.13545
95 1 5.72136 9.7428 3.75702
20 1 3.08627 11.9353 4.3227
93 1 5.46849 9.91441 6.36535
100 1 5.2944 10.7001 7.81106
106 1 4.90542 11.98 8.44016
101 1 5.39029 9.82622 8.86037
98 1 3.41486 11.1107 10.1342
99 1 3.24275 9.68852 9.76149
103 1 3.1731 11.6281 11.4757
33 1 3.71423 12.0403 9.15198
114 1 9.06831 2.19787 0.225234
15 1 6.77373 0.0919436 5.05513
19 1 6.64943 1.04116 3.98884
123 1 9.06658 0.520954 5.20899
129 1 8.54112 -0.0197135 9.53864
134 1 6.75376 2.65191 11.1488
137 1 7.14919 0.406548 9.5107
147 1 7.87056 4.81765 2.48731
139 1 9.0356 5.4943 2.07658
141 1 6.73111 4.73756 3.21022
150 1 8.20791 4.03367 5.0591
156 1 6.86261 4.39468 4.5813
151 1 8.4238 5.27739 7.32476
166 1 7.31208 4.6333 7.84973
23 1 6.17822 4.25675 7.04419
165 1 8.37461 4.72048 10.2124
136 1 8.68297 4.14115 11.4707
35 1 6.79095 2.89283 9.60573
167 1 7.44324 4.0494 9.1345
130 1 7.99145 2.96178 11.814
171 1 8.04679 8.55049 1.50684
140 1 7.92949 7.88562 0.186241
142 1 8.33874 7.60857 2.497
145 1 6.8944 6.81987 0.546653
49 1 6.02199 6.91548 2.14471
144 1 7.19337 7.31211 3.21455
148 1 7.05789 7.25579 4.68047
154 1 8.36324 7.10282 5.42082
153 1 8.37024 6.66799 6.87263
162 1 8.69123 7.64172 7.90481
184 1 8.38644 9.03562 7.72488
188 1 7.92521 8.41634 11.1166
160 1 7.82269 7.31929 9.95131
110 1 6.53915 9.09079 10.9175
74 1 6.50388 6.98624 9.23786
159 1 9.15676 7.03104 9.17867
169 1 7.04067 9.51691 1.70013
174 1 8.09929 10.365 3.48662
121 1 7.9925 12.0202 5.59651
170 1 6.84814 10.0078 2.92944
177 1 8.87269 9.6272 6.4375
178 1 8.62787 11.0055 6.42649
180 1 7.88832 9.98775 8.86328
181 1 8.50227 11.2304 8.79043
104 1 6.6501 9.63824 9.51353
86 1 6.10423 10.0494 11.9517
115 1 10.9811 1.87185 2.3421
112 1 9.97275 2.04387 1.24946
111 1 10.4059 2.09499 3.61384
120 1 10.2128 0.901294 4.55639
126 1 11.2934 0.0606398 4.6166
127 1 10.2192 0.149308 7.91933
131 1 9.63372 0.751693 9.09776
189 1 11.6792 -0.209273 7.46836
135 1 10.2266 1.96463 9.51822
132 1 11.4692 2.63121 9.49088
119 1 9.93144 4.89571 1.19098
117 1 11.1476 4.48124 1.84616
113 1 9.57696 4.59703 -0.0686605
157 1 11.1794 5.83494 3.9762
124 1 9.56831 3.6586 5.21926
128 1 10.2964 3.44757 4.00548
146 1 10.8637 4.57516 3.33917
161 1 10.2297 4.80218 8.88903
155 1 9.68407 4.62708 7.56002
133 1 11.5741 3.97016 9.1285
122 1 11.7082 3.8842 6.37135
125 1 10.3852 3.80034 6.32522
163 1 9.32494 5.60331 9.67102
168 1 11.7433 7.69005 0.361709
143 1 9.31745 6.72 2.76466
149 1 9.86249 7.469 5.07525
138 1 10.249 6.89197 3.81363
175 1 9.77483 9.1435 5.47525
152 1 10.9003 7.00967 6.37708
59 1 12.2063 6.58727 6.64712
158 1 11.3635 7.02436 10.4222
164 1 10.622 7.54945 9.34145
79 1 11.1213 7.14294 11.7696
183 1 10.8944 8.98651 9.04836
172 1 10.4411 10.0274 4.51295
173 1 11.2709 11.0203 4.97313
179 1 9.50681 10.3444 3.61861
176 1 12.2835 10.5507 6.00129
182 1 11.6591 9.71545 8.13128
186 1 11.6891 10.7913 7.26094
185 1 9.20411 11.6429 7.55147
187 1 10.3429 9.75519 10.1831
190 1 11.2055 10.946 10.4729
191 1 9.21758 9.24657 10.7995
105 1 12.1542 12.0075 10.2921
ITEM: TIMESTEP
4000
ITEM: NUMBER OF ATOMS
191
ITEM: BOX BOUNDS pp pp pp
-1.4731176379546557e-01 1.2147311763795516e+01
-1.4731176379546557e-01 1.2147311763795516e+01
-1.4731176379546557e-01 1.2147311763795516e+01
ITEM: ATOMS id type x y z
116 1 -0.0785668 1.10101 2.74376
4 1 1.47551 2.99485 1.5191
12 1 1.21783 0.579821 4.96296
118 1 0.148026 0.622303 4.1425
31 1 2.88059 0.974242 8.76378
32 1 1.36333 0.842847 8.60881
11 1 0.440017 0.78051 7.41037
17 1 2.59044 1.98716 6.24377
13 1 1.25975 1.17387 6.20933
28 1 0.381696 0.632385 9.8834
29 1 0.289594 2.14029 10.2242
30 1 1.4069 2.67185 11.0168
38 1 2.62028 2.05492 10.8672
7 1 0.0822002 4.69038 1.32578
6 1 0.722374 3.70263 0.646596
45 1 0.961749 5.5781 1.96037
5 1 2.65787 2.94675 2.25863
14 1 2.17355 3.37197 6.50967
63 1 0.413486 5.12734 8.61442
22 1 0.793496 3.66954 5.95725
34 1 1.2377 3.92478 11.593
64 1 1.61454 4.96282 10.794
66 1 1.66089 4.81621 9.33911
39 1 0.367745 8.22704 0.813434
42 1 1.55408 7.90847 1.48446
41 1 1.63409 7.6206 2.80024
43 1 2.68808 8.02242 0.56374
54 1 2.50013 6.85314 5.49123
50 1 2.32289 8.51936 3.68341
52 1 1.07999 6.61502 5.50837
40 1 1.08227 6.4137 3.08622
60 1 3.038 8.00064 4.86234
53 1 0.380758 6.29173 4.26342
108 1 1.27177 8.3859 8.69836
67 1 1.65286 7.15673 8.27908
71 1 0.552364 6.36479 7.81931
59 1 0.196758 6.6593 6.56391
77 1 2.15571 6.24258 11.2461
76 1 2.27762 7.61467 11.5863
75 1 1.3541 8.61692 11.0619
89 1 1.26927 10.4119 0.543751
84 1 1.15641 10.3979 2.05718
80 1 0.640396 9.2614 -0.18275
85 1 2.87488 10.6185 0.429298
83 1 2.06229 9.85191 3.19461
21 1 1.95036 11.6339 5.18246
96 1 1.24852 10.4767 5.60939
109 1 0.450355 9.11729 7.93042
107 1 1.7927 8.9138 9.8361
1 1 3.65283 1.86014 1.97972
3 1 4.95187 1.56638 1.86695
16 1 4.11275 0.0704728 5.1751
18 1 3.88452 1.55685 5.64991
10 1 4.91245 2.05146 6.312
24 1 5.50003 2.75274 8.82577
26 1 5.76892 0.142631 8.66077
9 1 5.70558 2.75232 7.19383
25 1 3.30426 2.1287 9.571
36 1 2.99569 0.844571 11.48
48 1 4.37345 4.91992 0.699934
44 1 5.50645 5.42494 2.60383
46 1 4.37957 4.73613 2.08587
8 1 3.1139 4.24507 2.59451
56 1 4.99368 5.83996 5.63129
58 1 6.00189 4.69995 5.57678
70 1 2.99223 5.1626 8.60346
57 1 2.98878 4.64759 6.93237
51 1 3.45751 5.77366 5.93516
78 1 4.96468 4.61432 11.7453
68 1 4.0566 4.58711 9.3917
69 1 4.76185 5.24203 10.4035
37 1 5.70312 3.27175 11.6376
27 1 4.21874 3.09445 9.21929
47 1 5.30716 7.92909 2.40578
49 1 5.71175 6.64047 1.79185
82 1 4.88505 9.02852 1.40805
55 1 5.9838 7.09615 5.75255
73 1 4.08549 7.58966 8.6446
62 1 5.55196 7.36675 8.1251
61 1 5.65726 8.05688 6.74929
65 1 3.02156 6.60303 8.47503
72 1 5.39543 6.58117 10.3496
81 1 5.4349 7.7133 11.0998
102 1 4.0247 8.97811 9.31648
88 1 3.38438 11.3786 1.8308
90 1 3.70376 9.07118 0.627071
94 1 5.51788 11.8371 5.18262
97 1 5.74657 10.3785 5.23226
87 1 3.0619 10.9536 3.23178
20 1 3.16488 11.6564 4.41622
93 1 5.21996 9.62321 6.48507
100 1 4.86028 10.4394 7.70187
106 1 4.58947 11.8252 8.15871
101 1 5.13072 9.73787 8.92639
33 1 3.47553 12.0247 9.00807
98 1 3.1142 11.1141 10.0576
99 1 2.93654 9.69825 9.8407
103 1 2.9768 11.6743 11.4961
114 1 9.12801 2.00407 0.2748
2 1 6.13058 1.71242 2.59952
15 1 6.73565 0.13451 4.7375
19 1 6.8093 0.991737 3.48902
123 1 8.94511 0.795655 5.1754
134 1 6.82025 2.60638 11.0673
130 1 8.28193 2.71441 11.6832
129 1 8.1419 0.100245 9.48386
137 1 6.76242 0.544652 9.52163
147 1 7.90719 4.94878 2.47654
141 1 6.7746 4.90612 3.30083
150 1 8.15102 3.82592 4.97516
156 1 6.81842 4.27309 4.54984
151 1 8.478 5.13699 7.16578
166 1 7.34343 4.51471 7.66197
23 1 6.31703 4.01587 6.82402
165 1 8.53242 4.60824 9.95467
136 1 8.73669 4.03409 11.2803
167 1 7.40213 4.13583 9.01277
35 1 6.73513 2.97806 9.53986
171 1 7.896 8.4232 1.37013
140 1 7.49332 7.6123 0.27478
145 1 6.63284 6.64415 0.717132
142 1 8.26679 7.7936 2.76039
144 1 7.25665 7.82456 3.75097
148 1 7.262 7.24843 5.10146
154 1 8.52754 7.02595 5.63101
92 1 5.96896 8.45204 3.51461
153 1 8.56403 6.51554 6.91838
162 1 8.59392 7.57182 7.82567
184 1 8.13719 8.95896 7.51759
188 1 7.78282 8.20108 11.1212
160 1 7.74653 7.21443 9.95645
74 1 6.30108 6.83619 9.29435
159 1 9.17344 7.07943 9.20778
110 1 6.5472 8.93595 10.7864
169 1 7.13066 9.58911 1.74302
91 1 5.92839 9.82363 0.920895
174 1 8.47938 10.812 3.01045
170 1 7.13706 10.3119 2.90369
121 1 7.95168 12.1551 5.55565
95 1 6.29345 9.87807 3.95358
177 1 8.73814 9.6081 6.34628
178 1 8.75425 11.0381 6.3157
180 1 7.66893 9.78198 8.62961
181 1 8.30207 11.1658 8.79304
104 1 6.5081 9.61133 9.53454
86 1 6.09985 9.95049 11.9097
191 1 9.03341 9.20122 11.1106
115 1 10.9546 1.67677 2.35477
112 1 10.0957 1.67342 1.20527
111 1 10.4399 2.10526 3.54013
120 1 10.1389 1.03399 4.54704
126 1 11.1676 0.0321741 4.62778
127 1 10.1268 0.365283 7.9366
189 1 11.4824 0.0168748 7.58147
135 1 10.1598 2.10837 9.60314
132 1 11.4144 2.9434 9.68781
131 1 9.42887 1.00488 9.1281
119 1 9.97716 4.99147 1.25729
117 1 11.1086 4.60904 1.98549
113 1 9.65354 4.59762 0.0427093
139 1 9.0182 5.58933 2.11324
146 1 10.9905 4.56552 3.42898
124 1 9.48856 3.86195 5.08632
128 1 10.2723 3.48895 3.92263
157 1 11.3435 5.83569 4.03847
122 1 11.7677 3.81423 6.08631
161 1 10.2846 4.8845 8.42089
155 1 9.73711 4.60176 7.25158
125 1 10.3916 4.17087 6.1531
133 1 11.5933 4.20908 8.97238
163 1 9.45911 5.48678 9.34872
168 1 11.628 7.29338 0.371655
143 1 9.30944 6.84415 2.8644
149 1 9.96108 7.47868 5.35219
138 1 10.2365 6.73226 3.98447
175 1 9.73253 9.10432 5.39207
152 1 11.1648 7.11673 6.29023
158 1 11.3231 7.22551 10.1199
164 1 10.3041 7.94763 9.38049
79 1 11.4933 6.98064 11.3616
172 1 10.3335 9.97232 4.59293
173 1 11.2298 10.9786 4.9062
179 1 9.63018 10.2573 3.43739
182 1 11.5952 9.85583 8.20229
186 1 11.6365 10.9405 7.28295
176 1 12.0759 10.651 5.97438
185 1 9.08271 11.5945 7.64809
187 1 10.0755 9.8943 10.4532
190 1 10.7073 11.2314 10.7425
183 1 10.5892 9.38611 9.2192
105 1 11.6761 12.0564 10.3988
ITEM: TIMESTEP
5000
ITEM: NUMBER OF ATOMS
191
ITEM: BOX BOUNDS pp pp pp
-8.6131211523603632e-02 1.2086131211523682e+01
-8.6131211523603632e-02 1.2086131211523682e+01
-8.6131211523603632e-02 1.2086131211523682e+01
ITEM: ATOMS id type x y z
4 1 1.83701 2.76223 1.48692
12 1 1.12439 0.512136 4.79022
118 1 0.0522401 0.786312 3.84436
13 1 1.28013 1.11665 6.05715
32 1 1.36131 0.655781 8.59998
11 1 0.699922 0.73595 7.33339
31 1 2.84687 0.849946 8.78668
17 1 2.50941 2.04723 6.27286
28 1 0.531273 0.980289 9.84448
29 1 0.470493 2.30262 10.1467
30 1 1.54243 2.72163 10.9673
38 1 2.67916 1.95697 11.0181
7 1 0.488926 4.69314 1.57069
6 1 1.17891 3.77763 0.678351
45 1 1.39736 5.40605 2.33789
14 1 2.17063 3.55723 6.48593
63 1 0.50043 5.09283 8.74459
22 1 0.753986 3.83221 6.28624
57 1 3.04836 4.62472 7.03602
34 1 1.48644 3.95143 11.5426
64 1 1.88629 5.0765 10.7844
66 1 1.71542 4.87175 9.43231
39 1 0.2148 8.56022 0.958412
42 1 1.2452 8.01275 1.63959
43 1 2.49849 8.19139 0.868436
54 1 2.48801 6.49899 5.64179
50 1 2.14491 8.47253 3.80131
52 1 1.06904 6.17267 5.66082
40 1 1.19179 6.3505 3.29994
53 1 0.491385 6.06791 4.36276
60 1 2.75093 7.65784 4.81715
41 1 1.3467 7.74335 3.00192
108 1 1.58128 8.6141 8.68155
67 1 1.84589 7.27972 8.45084
71 1 0.704807 6.42414 7.92356
59 1 0.0988225 6.50511 6.59408
75 1 1.46084 8.84169 11.1171
76 1 2.12385 7.75241 11.7717
77 1 2.11591 6.36888 11.4664
89 1 1.43683 10.5454 0.798006
84 1 1.06271 10.3916 2.26749
80 1 0.713587 9.54436 -0.0759074
83 1 1.94893 9.79713 3.19439
21 1 1.76206 11.4701 4.98356
96 1 1.00849 10.3867 5.32599
109 1 0.524056 9.11136 8.00967
107 1 1.94251 9.16407 9.86117
1 1 3.91072 1.59757 1.12775
3 1 5.22145 1.4921 1.57258
5 1 3.09284 2.51884 1.97489
16 1 4.0326 0.192678 5.40626
18 1 3.7578 1.41756 6.0374
10 1 4.89099 2.01994 6.51491
9 1 5.66736 2.9261 7.24857
24 1 5.4965 2.65147 8.63695
26 1 5.98307 0.308611 8.18166
25 1 3.17755 1.93497 9.52551
36 1 3.34414 1.09362 11.9629
27 1 4.18815 2.85655 9.12246
48 1 4.39155 4.65356 0.597466
44 1 5.57927 5.41954 2.65985
46 1 4.48102 4.52094 2.09074
8 1 3.68952 3.58646 2.70845
58 1 5.98705 4.74365 5.5997
56 1 4.99413 5.88473 5.68886
70 1 3.06109 5.08654 8.4663
51 1 3.58889 5.52624 6.01708
78 1 4.89264 4.28949 11.5547
68 1 4.13639 4.39852 9.30074
69 1 4.7166 5.0824 10.36
72 1 5.82013 6.00158 10.2279
37 1 5.70685 3.12169 11.6328
47 1 5.17302 7.96021 2.3474
49 1 5.7951 6.6778 1.88295
82 1 4.67492 8.99563 1.51169
90 1 3.48136 9.18649 0.853528
92 1 5.76974 8.46528 3.58581
55 1 5.85749 7.08107 5.74311
73 1 4.2934 7.49748 8.82228
62 1 5.56535 7.26121 8.25098
61 1 5.53544 7.92781 6.83898
65 1 3.0888 6.69462 8.58352
102 1 4.25932 8.83903 9.56972
88 1 3.53088 11.2394 2.00743
91 1 5.80384 9.74909 1.06804
85 1 2.99528 10.8124 0.766915
94 1 5.274 11.6965 5.55984
97 1 5.37144 10.2082 5.41202
87 1 3.12727 11.0331 3.27341
20 1 3.13652 11.5903 4.56188
95 1 6.06864 9.80181 4.15593
93 1 5.19451 9.3761 6.64086
100 1 5.09871 10.2219 7.78266
106 1 4.82189 11.6594 8.1192
101 1 5.38433 9.54544 8.90507
98 1 3.51452 11.0577 10.2601
103 1 3.4184 11.7313 11.6256
99 1 3.22247 9.65744 9.90311
33 1 3.76216 11.8821 9.07356
2 1 5.89164 1.25265 2.67633
114 1 8.89846 1.97474 0.296847
15 1 6.39785 0.302869 5.06518
19 1 6.08003 1.14906 3.93327
123 1 8.76992 0.795672 4.93716
121 1 7.75517 -0.033363 5.48755
137 1 6.9854 0.568817 8.98755
134 1 6.92954 2.80802 10.909
129 1 8.34797 0.395936 9.15268
130 1 8.21877 2.80325 11.5653
147 1 7.82402 4.81939 2.26243
139 1 8.89887 5.56169 1.96308
141 1 6.71666 4.7908 3.19082
150 1 8.00852 3.65638 4.80852
156 1 6.83676 4.51074 4.55013
151 1 8.42873 5.21282 7.24021
166 1 7.3268 4.48588 7.65156
23 1 6.31389 4.0536 6.80263
165 1 8.42982 4.63014 9.92048
136 1 8.85745 4.02241 11.2624
167 1 7.4104 4.18485 9.04296
35 1 6.68489 2.99073 9.4764
171 1 7.851 8.48528 1.58095
140 1 7.39456 7.93749 0.395979
145 1 6.58395 6.85613 0.44925
142 1 8.11822 7.77136 2.8701
144 1 7.05648 7.83623 3.84988
148 1 7.16418 7.10613 5.06925
154 1 8.40571 6.92589 5.57805
153 1 8.61172 6.62793 6.90374
162 1 8.68116 7.70813 7.80854
184 1 8.18133 8.97167 7.52748
188 1 7.79016 8.45687 11.0437
160 1 7.68753 7.41391 9.89686
74 1 6.45158 6.87811 9.35138
81 1 6.31909 5.91774 11.5515
169 1 6.90197 9.75814 1.96043
170 1 6.95717 10.3895 3.23283
174 1 8.11857 11.0814 3.38482
177 1 8.36216 9.70373 6.2058
181 1 8.55299 11.1893 8.57499
180 1 7.93841 9.87686 8.53288
178 1 8.4549 11.0994 6.1972
104 1 6.84174 9.79056 9.42686
110 1 6.83803 9.67548 10.8949
86 1 5.94388 10.2104 11.8808
115 1 10.8587 1.85497 2.13989
112 1 9.99096 1.70089 0.934225
116 1 12.2045 1.39015 2.54348
111 1 10.1323 2.2332 3.25535
120 1 9.83724 1.0229 4.07545
126 1 10.9777 0.185951 4.2413
127 1 10.0817 0.406588 7.6382
189 1 11.5599 0.166949 7.33147
131 1 9.60614 1.10557 8.89364
135 1 10.2921 2.16881 9.44104
119 1 10.0376 5.0373 1.20448
117 1 11.2354 4.71835 1.8533
113 1 9.64209 4.89141 -0.097558
146 1 10.9686 4.58994 3.23504
124 1 9.38335 3.61906 5.10718
128 1 10.0865 3.59385 3.8402
157 1 11.2613 5.83563 4.07473
161 1 10.3318 4.90847 8.54941
155 1 9.66448 4.49676 7.33101
125 1 10.2688 3.85648 6.1885
122 1 11.6213 3.58627 6.24132
133 1 11.5366 4.41554 9.06128
163 1 9.34796 5.70301 9.38796
132 1 11.4033 3.00807 9.5592
168 1 11.474 7.57364 0.738774
143 1 9.07876 6.7123 2.91799
149 1 9.85786 7.66217 5.16774
138 1 10.1986 6.67477 3.94853
175 1 9.43002 9.13702 5.15634
152 1 11.1219 7.33851 6.21183
158 1 11.1235 7.35876 10.3407
164 1 10.5243 7.9781 9.32663
79 1 10.9594 7.18853 11.676
159 1 9.08101 7.30473 9.09688
172 1 10.0423 10.0612 4.21235
173 1 10.9618 11.0456 4.70857
179 1 9.25155 10.409 3.07312
176 1 11.9049 10.5938 5.63429
182 1 11.4737 9.75608 8.01013
186 1 11.5558 10.8762 7.05128
185 1 9.12475 11.6006 7.2843
183 1 10.6215 9.43258 9.11441
187 1 10.1195 10.0668 10.3416
190 1 11.0059 11.0643 10.6908
191 1 9.193 9.23245 10.9614
105 1 11.9211 11.9903 10.3908
ITEM: TIMESTEP
6000
ITEM: NUMBER OF ATOMS
191
ITEM: BOX BOUNDS pp pp pp
-1.2143278761661636e-01 1.2121432787616694e+01
-1.2143278761661636e-01 1.2121432787616694e+01
-1.2143278761661636e-01 1.2121432787616694e+01
ITEM: ATOMS id type x y z
4 1 1.26645 2.47307 1.83965
116 1 0.362442 1.51999 2.5263
5 1 2.79103 2.44187 1.68655
12 1 1.34078 0.420018 4.98358
118 1 0.425847 0.645542 3.76879
17 1 2.52743 2.0841 6.18445
32 1 1.37094 0.63305 8.60441
11 1 0.634035 0.449425 7.42172
31 1 2.73712 0.745204 8.83944
13 1 1.46688 1.03737 6.24405
28 1 0.514398 0.787461 9.78407
29 1 0.329943 2.10544 10.2321
30 1 1.35598 2.46337 11.0835
38 1 2.59855 1.77452 10.957
7 1 0.0915842 4.59636 1.61189
6 1 0.710412 3.52449 1.05272
45 1 0.838641 5.55474 2.23539
14 1 2.2023 3.5347 6.40234