ITEM: TIMESTEP
1000
ITEM: NUMBER OF ATOMS
191
ITEM: BOX BOUNDS pp pp pp
0.0000000000000000e+00 1.2000000000000000e+01
0.0000000000000000e+00 1.2000000000000000e+01
0.0000000000000000e+00 1.2000000000000000e+01
ITEM: ATOMS id type x y z
12 1 1.20509 0.848646 4.8824
1 1 2.45416 2.21262 3.44646
118 1 0.0568909 0.931156 4.21542
31 1 2.7963 1.20012 8.59879
32 1 1.33362 1.11411 8.47168
11 1 0.524598 1.20419 7.34151
17 1 2.71238 2.40746 6.16634
13 1 1.38231 1.67759 6.10224
28 1 0.600435 1.06936 9.68613
29 1 0.380463 2.49177 10.0643
30 1 1.54051 2.88833 10.6729
38 1 2.76966 2.1392 10.5977
4 1 2.18611 3.42645 1.49308
6 1 1.37529 4.1638 0.681185
7 1 0.316389 4.7799 1.23673
5 1 2.72351 3.38718 2.80547
53 1 0.358511 5.83537 4.1516
14 1 2.48962 3.77126 6.47623
22 1 1.04066 4.12647 6.92577
63 1 0.861504 4.89394 8.19573
34 1 1.60511 4.1806 11.3394
64 1 1.84804 5.17285 10.4568
66 1 1.97643 4.87993 9.13738
39 1 0.181589 8.50532 0.712513
43 1 2.65505 8.15867 0.868042
42 1 1.41328 7.99508 1.5577
45 1 0.410238 6.0196 1.6437
40 1 0.607622 6.50916 2.98891
41 1 1.37971 7.70322 2.91852
54 1 2.3679 6.52629 5.21292
50 1 2.14686 8.46843 3.69532
52 1 1.04645 6.21113 5.25484
60 1 2.43505 7.90596 4.88676
59 1 0.319578 6.54721 6.41356
67 1 1.82448 7.31926 8.10585
71 1 0.824954 6.39916 7.65354
108 1 1.50378 8.72625 8.5489
75 1 1.63839 8.73584 10.9
76 1 2.39605 7.75422 11.4558
77 1 2.36185 6.3648 11.1126
89 1 1.68557 10.4378 0.778156
84 1 1.26087 10.293 2.26055
96 1 1.39937 10.5244 5.80047
21 1 1.92503 11.6793 5.0829
83 1 1.97272 9.86486 3.45811
109 1 0.460584 9.13924 7.92927
107 1 1.96788 9.23301 9.68906
80 1 0.964113 9.47731 11.8748
3 1 3.46182 1.23958 3.5408
16 1 4.12741 0.164967 5.50129
2 1 4.94593 1.47411 3.18049
9 1 5.79569 2.82726 7.153
24 1 5.70492 2.43076 8.65892
26 1 5.83625 0.933983 8.58776
10 1 5.33926 2.06308 6.16372
18 1 3.95423 1.52412 6.0336
25 1 3.47206 2.22466 9.36298
36 1 3.1563 1.05003 11.3995
48 1 4.33373 4.65548 0.709691
44 1 5.99016 5.22315 2.44868
46 1 4.83482 4.57961 2.03733
8 1 3.91788 4.06314 2.96916
58 1 5.89245 4.77236 5.62939
56 1 5.05263 5.94244 5.47293
51 1 3.61934 5.79543 5.77172
70 1 3.40603 5.25056 8.37877
57 1 3.29911 4.88631 6.83742
78 1 5.12797 4.29346 11.5245
68 1 4.40579 4.42649 9.42396
69 1 5.059 5.21573 10.3426
27 1 4.47806 3.0505 9.22505
47 1 5.19546 7.94796 2.43487
82 1 4.90455 8.78538 1.39948
92 1 5.0144 8.61295 3.70179
55 1 5.95341 7.18716 5.53858
73 1 4.19161 7.74413 8.55678
62 1 5.53684 7.49362 7.95057
65 1 3.19209 6.8109 8.4114
61 1 5.63671 8.06901 6.60218
72 1 5.55993 6.5066 10.3029
81 1 5.54413 7.76087 11.0694
88 1 3.49987 11.0428 2.1632
85 1 3.16455 10.4098 1.00517
91 1 5.91697 9.71594 1.04399
90 1 3.67653 9.11918 1.0001
94 1 5.51007 11.7138 5.47563
97 1 5.54044 10.2859 5.25334
87 1 3.11333 10.7168 3.43176
20 1 3.18504 11.8843 4.2963
95 1 5.89847 9.73487 4.04418
93 1 5.64775 9.60237 6.45837
100 1 5.39615 10.4731 7.59658
101 1 5.51693 9.71445 8.84227
106 1 4.93343 11.8978 7.96221
33 1 3.59975 11.9983 8.55921
98 1 3.50555 11.1841 9.68144
103 1 3.22428 11.7935 10.9441
99 1 3.27887 9.79207 9.59418
102 1 4.32834 9.07969 9.01661
114 1 8.60925 1.0636 0.341457
15 1 6.28686 1.03729 5.36838
19 1 6.14573 1.31933 3.9212
121 1 7.76238 0.614062 5.91285
128 1 8.88866 2.97665 3.70562
129 1 8.35478 0.18746 9.37563
130 1 8.26103 2.13424 11.4211
137 1 7.02759 0.504277 9.32774
134 1 6.96563 2.54662 10.8961
35 1 6.87822 2.8466 9.43909
147 1 8.12484 3.78741 2.81579
139 1 8.95702 4.71955 2.11283
141 1 6.86754 4.534 3.29409
150 1 8.14886 4.52859 5.47536
156 1 6.87198 4.6036 4.71775
151 1 8.27125 5.07366 6.80782
166 1 7.22697 4.60737 7.64401
23 1 6.11789 4.13615 6.99852
167 1 7.57641 4.01855 8.90824
165 1 8.33637 4.89564 9.7276
37 1 6.09022 3.28999 11.648
49 1 6.32647 6.66491 2.15676
140 1 7.99375 7.68454 0.383597
142 1 8.58072 7.38481 2.5869
145 1 6.96274 6.67636 0.681379
171 1 8.11027 8.45739 1.63405
144 1 7.31434 7.04926 3.2988
148 1 7.18411 7.1601 4.73754
154 1 8.35935 7.1502 5.53352
153 1 8.1698 6.55922 6.73473
162 1 8.58165 7.49694 7.74916
184 1 8.14193 8.93666 7.51019
188 1 7.99517 8.26872 11.0671
74 1 6.48352 6.90777 9.14608
160 1 7.81743 7.2395 9.89896
169 1 7.09657 9.53003 1.87342
174 1 7.97704 10.9841 3.56656
170 1 6.93637 10.1165 3.21665
177 1 8.34338 9.55504 6.12299
178 1 8.10362 11.1346 6.34415
180 1 7.89147 9.70405 8.60484
181 1 8.60636 10.9521 8.71045
185 1 8.91145 11.4014 7.40967
104 1 6.73251 9.58153 9.41521
110 1 6.49943 9.08283 10.8292
86 1 6.07477 10.1283 11.7812
115 1 10.3233 1.23323 2.44296
116 1 11.6482 0.993539 2.82226
112 1 9.70433 1.22206 1.2498
111 1 9.4857 1.66562 3.53701
126 1 10.9251 0.207048 4.75638
120 1 9.76984 1.11383 4.82804
123 1 9.07273 1.35593 5.95414
127 1 9.85358 0.871564 7.35898
189 1 11.3665 0.497339 7.24559
131 1 9.26943 1.27343 8.8753
135 1 9.92736 2.45712 9.72437
136 1 9.31994 2.91918 10.9834
105 1 11.8296 0.0101488 10.1355
119 1 10.0568 4.12402 1.1601
117 1 11.2913 4.10232 1.87838
157 1 11.3328 4.9189 4.17809
124 1 9.18021 3.70881 5.01453
146 1 11.3855 3.97031 3.30822
138 1 10.2186 5.74187 3.89366
161 1 10.2777 4.94223 8.31128
155 1 9.72347 4.77316 7.05922
133 1 11.4486 4.36918 8.8939
122 1 11.7791 3.7662 6.22739
125 1 10.4313 4.01175 6.05778
163 1 9.44619 5.61201 9.18789
113 1 9.86272 3.82653 11.855
132 1 11.2015 3.12199 9.46298
143 1 9.41135 6.11047 2.82495
168 1 11.139 7.60473 0.563201
149 1 9.69535 7.6531 5.41856
152 1 10.827 7.13612 6.19421
159 1 9.168 7.09184 8.9772
158 1 11.2905 7.02504 10.2119
164 1 10.4181 7.84684 9.49228
79 1 11.2299 6.74242 11.5198
172 1 10.0074 10.0659 4.56232
173 1 11.0291 10.7553 5.07982
175 1 9.42791 9.05859 5.30838
179 1 9.28849 10.6904 3.58403
182 1 11.2861 9.8532 8.11419
186 1 11.4828 11.032 7.29613
176 1 11.9937 10.5963 6.03074
187 1 10.2157 9.88624 10.5578
190 1 10.9942 11.1135 10.7664
183 1 10.5117 9.3033 9.2034
191 1 9.03 9.33326 11.045
ITEM: TIMESTEP
2000
ITEM: NUMBER OF ATOMS
191
ITEM: BOX BOUNDS pp pp pp
-1.1170621370801140e-01 1.2111706213707969e+01
-1.1170621370801140e-01 1.2111706213707969e+01
-1.1170621370801140e-01 1.2111706213707969e+01
ITEM: ATOMS id type x y z
4 1 1.86592 2.80013 1.42129
12 1 1.22285 0.61539 4.84104
118 1 0.250338 0.392766 3.82965
13 1 1.25564 1.43903 6.03087
31 1 2.68063 0.991945 8.65327
32 1 1.19872 0.784077 8.5638
11 1 0.501321 0.857862 7.28301
17 1 2.48838 2.23028 6.04088
28 1 0.228629 0.951047 9.6921
38 1 2.68574 2.05717 10.7505
30 1 1.47631 2.72996 10.9425
29 1 0.285924 2.38364 10.1028
7 1 0.424808 4.74986 1.46221
6 1 1.22785 3.84971 0.664677
45 1 0.995961 5.81687 2.03527
14 1 2.2297 3.61431 6.52124
22 1 0.874061 3.89672 7.04735
63 1 0.70121 4.72979 8.30077
34 1 1.50339 4.07286 11.4671
64 1 1.90401 5.13464 10.6772
66 1 1.83051 4.7702 9.23059
39 1 0.152131 8.64039 0.968753
43 1 2.40264 8.04124 0.646319
42 1 1.35746 8.10554 1.63517
41 1 1.45472 7.73887 2.94121
54 1 2.30825 6.69558 5.56641
50 1 2.10814 8.69577 3.7519
52 1 0.918443 6.33557 5.60823
40 1 0.999707 6.54223 3.17734
60 1 2.54461 7.99389 4.98091
53 1 0.336522 6.09446 4.19803
108 1 1.34212 8.52625 8.5697
67 1 1.74093 7.1081 8.18621
71 1 0.565432 6.26011 7.88601
109 1 0.151879 8.97283 8.01981
77 1 2.07891 6.33657 11.3328
76 1 1.82377 7.67583 11.6403
75 1 1.28576 8.92123 11.0666
89 1 1.49308 10.6608 0.79101
84 1 1.25021 10.5719 2.18476
80 1 0.676532 9.642 0.0530724
83 1 2.01814 10.0996 3.22067
21 1 1.81408 11.6635 5.37221
96 1 1.1682 10.5291 5.76252
107 1 1.82008 9.20471 9.79082
3 1 4.68919 0.501113 2.03893
1 1 3.77755 1.43993 1.95051
2 1 5.94969 0.662887 2.51974
5 1 3.06922 2.51956 2.16764
16 1 4.16966 0.060014 5.52317
18 1 3.79795 1.47942 5.83364
26 1 5.83351 0.826541 8.90088
24 1 5.64881 2.32233 8.65674
10 1 5.02203 1.9812 6.16837
9 1 5.59818 2.88841 7.17447
25 1 3.22322 2.15492 9.43548
36 1 2.90998 0.935205 11.6595
48 1 4.13976 4.8984 0.567315
44 1 5.59495 5.24593 2.75776
46 1 4.55589 4.58165 1.97923
8 1 3.77151 3.60114 2.63796
56 1 5.00224 5.68776 5.60083
58 1 5.88535 4.51392 5.67873
70 1 3.11289 5.14238 8.52663
57 1 3.15888 4.63645 6.9087
51 1 3.61911 5.72864 5.97731
78 1 4.84816 4.66916 11.6608
68 1 4.2634 4.48606 9.28019
69 1 4.77142 5.17958 10.3599
37 1 5.78423 3.59833 11.6911
27 1 4.33562 3.02399 9.19441
47 1 5.03746 7.82707 2.44269
82 1 4.67596 8.78323 1.42882
90 1 3.40438 9.14897 0.856689
92 1 5.16378 8.39534 3.7071
55 1 5.83073 7.10676 5.48316
73 1 4.08898 7.74302 8.54962
62 1 5.48916 7.50845 7.9928
61 1 5.76181 8.08455 6.69519
65 1 3.1542 6.6651 8.39575
102 1 4.22702 9.0297 9.18735
72 1 5.36791 6.46148 10.0469
81 1 5.48927 7.60496 10.9013
88 1 3.7495 11.257 2.13549
85 1 3.20433 10.7706 0.675223
91 1 5.7891 9.70672 1.08356
97 1 5.56373 10.3209 5.28979
94 1 5.52659 11.7334 5.4657
20 1 3.15407 11.5938 4.70688
87 1 3.28577 10.9282 3.35919
95 1 5.78733 9.63097 4.08642
93 1 5.43064 9.65208 6.5487
100 1 5.27277 10.7907 7.83842
101 1 5.47655 9.91148 8.96013
33 1 3.56982 12.0559 9.05085
106 1 4.90137 12.1272 8.27956
98 1 3.2972 11.1973 10.0815
103 1 3.1283 11.7208 11.4018
99 1 3.17967 9.69004 9.95881
86 1 5.97588 10.0185 11.9134
114 1 8.64904 1.8629 0.438469
15 1 6.79057 0.126778 5.01065
19 1 6.77299 0.678918 3.5175
121 1 8.15859 -0.015543 5.59379
129 1 8.29647 0.445598 9.58886
130 1 8.08405 2.56971 11.5429
137 1 6.8559 0.544301 9.9319
134 1 6.76064 2.78699 11.0258
147 1 7.84131 4.67871 2.38704
139 1 9.03756 5.31555 1.94123
141 1 6.70511 4.51916 3.23663
150 1 8.3014 3.62604 4.93168
156 1 6.93604 4.25268 4.71038
151 1 8.51977 5.19521 6.98338
166 1 7.43775 4.45133 7.70511
23 1 6.23058 4.11694 7.06431
167 1 7.58315 3.99274 9.03813
165 1 8.65902 4.42304 9.84645
35 1 6.58531 3.08162 9.51655
171 1 8.02134 8.47915 1.5274
140 1 7.66361 7.66322 0.34948
142 1 8.27599 7.61475 2.64702
145 1 6.70221 6.63987 0.692426
49 1 5.99008 6.67496 2.32416
144 1 7.19624 7.10162 3.34014
148 1 7.10759 6.96424 4.76401
154 1 8.33664 7.01267 5.47
153 1 8.48442 6.61604 6.75227
162 1 8.51539 7.59025 7.69402
74 1 6.33581 6.8619 9.08379
188 1 7.86562 8.30979 11.1729
160 1 7.58949 7.32147 9.8126
110 1 6.53565 9.11499 11.0093
159 1 8.96624 7.10377 9.11819
169 1 6.97158 9.47242 1.85239
174 1 8.13154 10.816 3.5387
170 1 6.96656 9.99897 3.28724
177 1 8.84234 9.71612 6.39076
178 1 8.75694 11.1195 6.34874
180 1 7.89708 9.93708 8.75166
181 1 8.49136 11.2612 8.7556
184 1 8.41424 8.98519 7.67656
104 1 6.70906 9.68907 9.54538
191 1 8.93856 9.38073 10.9318
115 1 10.8557 1.50255 2.10686
112 1 9.78259 1.41931 1.03869
116 1 12.1929 0.910634 2.60197
111 1 10.1653 2.03922 3.26697
120 1 10.1725 1.04986 4.3874
126 1 11.2538 0.0878708 4.44829
123 1 9.09894 0.983067 5.27393
127 1 10.2031 0.61113 7.82584
189 1 11.45 0.158803 7.4213
135 1 10.0503 2.52401 9.71748
131 1 9.45345 1.36801 9.09815
105 1 11.5491 -0.0305428 10.1568
119 1 10.0437 4.66439 1.08333
117 1 11.3155 4.49621 1.68312
157 1 11.2599 5.66922 3.86833
124 1 9.71851 3.63483 4.9565
146 1 11.0415 4.40592 3.17617
128 1 10.5886 3.27443 3.79384
161 1 10.5037 5.12418 8.50839
155 1 9.93012 4.83753 7.12403
125 1 10.5872 4.09766 6.15371
133 1 11.5766 4.36165 8.94737
122 1 11.8653 3.73776 6.39698
163 1 9.35876 5.50293 9.21597
113 1 9.72051 4.30576 12.0351
136 1 9.2778 3.44031 10.7174
132 1 11.3855 3.08175 9.49877
143 1 9.25622 6.64909 2.76506
168 1 11.2355 7.99011 0.77115
149 1 9.76088 7.52542 5.12376
138 1 10.1447 6.6369 3.83746
175 1 9.70196 9.079 5.25457
152 1 10.9055 7.25294 6.11477
59 1 12.0863 6.59122 6.71577
158 1 11.1214 7.48468 10.3963
164 1 10.3694 7.94447 9.39208
79 1 10.8006 7.48095 11.7994
172 1 10.2607 10.086 4.50871
173 1 11.225 10.9889 4.86484
179 1 9.39331 10.5624 3.63512
176 1 12.054 10.7008 5.9834
182 1 11.3462 9.83028 8.15291
186 1 11.5439 10.9694 7.31403
185 1 9.2522 11.5933 7.61676
187 1 10.0478 9.94944 10.2472
190 1 10.6465 11.2189 10.4281
183 1 10.4829 9.34982 9.06978
ITEM: TIMESTEP
3000
ITEM: NUMBER OF ATOMS
191
ITEM: BOX BOUNDS pp pp pp
-2.1698637172510035e-01 1.2216986371725062e+01
-2.1698637172510035e-01 1.2216986371725062e+01
-2.1698637172510035e-01 1.2216986371725062e+01
ITEM: ATOMS id type x y z
116 1 0.216047 1.91337 2.31077
4 1 1.17569 2.42621 1.61801
12 1 1.00815 0.796257 4.80353
118 1 0.0467978 0.824688 3.77587
13 1 1.28006 1.36729 6.09719
32 1 1.32499 0.718251 8.57246
11 1 0.491959 0.731712 7.33711
17 1 2.51611 2.16519 6.24766
31 1 2.71642 0.758874 8.79959
28 1 0.350377 0.641765 9.76915
38 1 2.44499 1.66732 11.0029
30 1 1.2004 2.46146 11.0467
29 1 0.161528 1.96917 10.2574
7 1 0.0414875 4.64357 1.52965
6 1 1.01931 3.7112 0.690596
45 1 0.598767 5.84782 1.85744
14 1 2.28615 3.43056 6.82902
22 1 0.790736 3.73775 6.96044
63 1 0.56595 4.13735 8.3333
34 1 1.29462 3.78523 11.6938
64 1 1.53646 4.98801 10.8083
66 1 1.53092 4.77206 9.23647
39 1 0.330591 8.62523 0.835365
42 1 1.4869 8.07954 1.53432
43 1 2.56074 8.03273 0.500112
54 1 2.36048 6.62773 5.56583
50 1 2.02303 8.69016 3.94758
52 1 0.84852 6.37205 5.48631
40 1 0.864569 6.47674 3.03137
53 1 0.261416 6.07212 4.19834
60 1 2.64028 7.87693 4.90911
41 1 1.51306 7.80446 2.90919
108 1 1.44856 8.67077 8.83782
67 1 1.74629 7.36482 8.50872
71 1 0.556693 6.69488 7.97777
59 1 -0.0105046 6.68128 6.65527
77 1 1.84955 6.35549 11.2592
76 1 2.10581 7.68472 11.6789
75 1 1.47697 8.8744 11.1996
89 1 1.61954 10.5759 0.739006
84 1 1.17208 10.5191 2.1343
80 1 0.888284 9.64105 -0.0784585
83 1 2.01628 10.0045 3.32591
21 1 1.74062 11.996 4.69566
96 1 0.855524 10.9328 5.0832
109 1 0.396744 9.04424 8.18287
107 1 1.95781 9.37779 10.0103
3 1 4.20117 0.283019 1.6808
1 1 3.34183 1.19237 0.86269
2 1 5.26379 0.862796 2.38465
5 1 2.94099 2.2973 1.5113
16 1 4.13313 0.105071 5.16202
18 1 3.83271 1.50412 6.03834
9 1 5.72733 2.87843 7.4268
24 1 5.53606 2.88065 8.9597
10 1 4.9051 2.13093 6.64215
26 1 5.96765 0.244855 8.73174
25 1 3.29226 1.90945 9.71554
36 1 3.15279 0.792595 11.9856
48 1 4.73068 5.03256 0.540533
44 1 5.604 5.19961 2.63857
46 1 4.52807 4.60396 1.85874
8 1 3.88042 3.2424 2.04204
56 1 4.94809 5.85475 5.77985
58 1 5.99576 4.72702 5.78761
70 1 3.07057 5.20709 8.56085
57 1 3.01822 4.58528 7.11948
51 1 3.35224 5.64237 6.06077
78 1 5.03438 4.61775 11.707
68 1 4.0023 4.59058 9.46705
69 1 4.82849 5.24268 10.4604
37 1 5.70921 3.28165 11.8582
27 1 4.12191 3.05617 9.47313
47 1 4.99948 7.82242 2.20387
49 1 5.90369 6.7147 2.26397
82 1 4.91352 8.72138 1.07836
92 1 4.82271 8.75173 3.32211
55 1 5.59315 7.10785 5.60331
73 1 4.0831 7.92208 8.54671
62 1 5.41617 7.36506 8.10945
61 1 5.64573 8.06908 6.7146
65 1 3.03885 6.78168 8.51912
72 1 5.55341 6.47579 10.3067
81 1 5.53004 7.69159 11.1315
88 1 3.65114 11.3132 1.96853
91 1 5.88407 9.59819 0.727919
85 1 3.15904 10.5612 0.475569
90 1 3.6418 9.10164 0.562407
97 1 5.50624 10.4679 5.12647
94 1 5.44442 11.8405 5.04074
87 1 3.21562 11.0523 3.24085
20 1 3.13493 11.9165 4.37998
95 1 5.68103 9.83938 3.80912
93 1 5.48605 9.71062 6.49562
100 1 5.45265 10.5604 7.69496
106 1 4.94966 11.7772 8.20548
101 1 5.43904 9.75283 8.85375
33 1 3.61899 12.0408 8.94198
98 1 3.51159 11.2861 10.2201
99 1 3.3477 9.83261 10.0403
103 1 3.21265 11.8002 11.7799
102 1 4.15329 9.16258 9.06891
114 1 8.92038 1.80257 0.314593
15 1 6.51694 0.0669261 4.57451
19 1 6.1027 0.90357 3.47071
123 1 8.80464 0.716347 4.84569
121 1 7.814 -0.230719 5.2081
129 1 8.41464 0.189464 9.29376
137 1 7.10318 0.720316 9.33039
134 1 6.8025 2.64513 11.1474
130 1 8.20874 2.70062 11.739
147 1 7.98702 4.70994 2.45191
141 1 6.71981 4.56361 3.13991
150 1 8.21779 3.76622 5.05206
156 1 6.97239 4.42928 4.66622
151 1 8.53396 5.20967 7.34443
166 1 7.5059 4.42149 7.8089
23 1 6.4449 4.00015 6.99315
165 1 8.61649 4.4628 10.1646
136 1 8.85891 3.98557 11.4882
35 1 6.76433 3.01221 9.8027
167 1 7.52887 3.99701 9.24443
171 1 7.91312 8.61037 1.57881
140 1 7.88583 7.75848 0.312395
142 1 8.1313 7.61894 2.8617
145 1 6.82941 6.71297 0.831196
144 1 7.00118 7.21315 3.49075
148 1 6.90452 6.89317 4.87994
154 1 7.99757 6.60869 5.66501
153 1 8.60134 6.55763 6.88479
162 1 8.77028 7.61134 7.71353
184 1 8.46118 8.95233 7.59002
188 1 7.8843 8.22097 11.1616
160 1 7.75554 7.22601 9.90524
110 1 6.69327 9.05774 10.9046
74 1 6.43136 6.90728 9.18956
169 1 6.80133 9.50578 1.77231
174 1 7.90392 10.862 3.26068
170 1 6.69562 10.2412 2.90683
179 1 9.06655 10.8165 3.77139
177 1 8.49401 9.77624 6.22122
178 1 8.34812 11.2829 6.18817
180 1 8.06249 9.99987 8.72538
181 1 8.5612 11.3131 8.71391
185 1 9.11045 11.7267 7.33329
104 1 6.84117 9.70125 9.47717
86 1 6.22852 10.0491 11.7927
191 1 9.06446 9.33875 11.0422
115 1 10.9698 2.00015 2.08134
112 1 9.9573 1.93725 1.19411
111 1 10.3385 2.10229 3.39776
120 1 10.0428 0.996539 4.34555
126 1 11.1922 0.0363962 4.08018
127 1 10.0909 0.143935 7.78587
131 1 9.73669 0.856363 9.09795
189 1 11.4206 -0.0662082 7.57656
135 1 10.2688 2.07558 9.61886
132 1 11.5381 2.80818 9.77707
119 1 10.0979 4.97098 1.33904
117 1 11.2318 4.45536 1.93229
113 1 9.72781 4.6955 0.00539707
139 1 9.09109 5.58089 2.21833
128 1 10.4699 3.50734 3.92223
124 1 9.79499 3.78499 5.12589
146 1 11.0612 4.60756 3.30626
157 1 11.1501 5.85528 3.97336
161 1 10.6 4.85105 8.71139
155 1 9.87214 4.61643 7.51434
125 1 10.5235 3.98207 6.38241
122 1 11.8777 3.74438 6.32131
133 1 11.7076 4.0087 8.88871
163 1 9.50917 5.4227 9.59132
168 1 11.5385 7.98882 0.701013
149 1 10.3561 7.9526 5.25211
138 1 10.2289 7.0385 4.01141
143 1 9.31592 6.86815 2.8482
152 1 11.1597 7.34419 6.32676
158 1 11.1696 7.3062 10.6587
164 1 10.493 7.7535 9.47089
79 1 11.3392 7.14874 12.0459
159 1 9.16237 6.89704 9.25379
172 1 10.1463 10.2229 4.37862
173 1 11.1405 11.1706 4.62091
175 1 9.70779 9.22766 5.3332
176 1 11.9601 10.8952 5.70872
182 1 11.598 9.77489 8.03277
186 1 11.6335 10.8855 7.16736
183 1 10.7629 9.20726 9.11549
187 1 10.4015 9.9645 10.2973
190 1 11.0669 11.0661 10.5449
105 1 12.0959 11.9232 10.3089
ITEM: TIMESTEP
4000
ITEM: NUMBER OF ATOMS
191
ITEM: BOX BOUNDS pp pp pp
-1.3430766561235177e-01 1.2134307665612374e+01
-1.3430766561235177e-01 1.2134307665612374e+01
-1.3430766561235177e-01 1.2134307665612374e+01
ITEM: ATOMS id type x y z
116 1 0.105382 1.69009 2.33967
4 1 1.20823 2.46519 1.80869
5 1 2.69409 2.28684 1.76568
12 1 1.10553 0.805683 4.91293
118 1 0.0831365 0.71461 3.85439
17 1 2.47272 2.20361 6.4752
32 1 1.37626 0.7161 8.5892
11 1 0.620818 0.751088 7.41574
13 1 1.23212 1.40526 6.17789
31 1 2.78486 0.679274 8.92062
28 1 0.651311 0.800567 9.81091
38 1 2.73363 1.95111 10.9213
30 1 1.52007 2.63703 10.934
29 1 0.4385 2.12183 10.2584
7 1 0.275137 4.75105 1.38346
6 1 0.995371 3.65601 0.806074
45 1 1.1345 5.74767 1.97737
14 1 2.00162 3.45307 6.89696
22 1 0.676055 3.8753 7.24078
63 1 0.564802 4.42522 8.50903
57 1 2.89475 4.61547 6.98874
34 1 1.47645 3.88365 11.6667
64 1 1.53974 5.16739 10.8214
66 1 1.59977 4.92934 9.3462
39 1 0.0631779 8.44823 0.799041
42 1 1.22183 8.25137 1.58319
43 1 2.34448 8.34092 0.782664
41 1 1.3262 7.8868 2.8713
54 1 2.51766 6.51973 5.33002
50 1 2.2817 8.648 3.54888
52 1 0.954839 6.38188 5.43823
40 1 1.04091 6.62116 3.0705
53 1 0.367589 6.0947 4.11158
60 1 2.92138 7.82816 4.73217
59 1 0.136885 6.79825 6.46782
67 1 1.87764 7.45948 8.4459
71 1 0.821024 6.74334 7.69825
108 1 1.67561 8.82918 8.87892
77 1 1.87556 6.29693 11.6615
76 1 2.08179 7.68835 11.8038
75 1 1.23651 8.73143 11.2277
89 1 0.640131 10.5794 0.946015
84 1 1.30746 10.54 2.1107
80 1 0.419135 9.49806 -0.0547749
96 1 1.09345 10.5575 5.22401
21 1 1.8223 11.7175 4.85304
83 1 2.47534 10.0045 3.02577
109 1 0.719764 9.50633 8.27002
107 1 2.0388 9.28728 10.167
105 1 0.0183614 12.0115 10.3737
3 1 4.5305 0.527968 1.80133
1 1 3.51639 1.44037 1.04552
2 1 5.74749 0.729565 2.38223
16 1 3.97602 0.400186 5.27153
24 1 5.59151 2.8783 8.80765
10 1 5.00438 2.18465 6.58768
9 1 5.9882 2.75874 7.45262
18 1 3.73752 1.68487 6.08321
25 1 3.24544 1.85987 9.59124
36 1 3.16232 1.06103 12.015
26 1 5.78894 0.281334 9.08069
48 1 4.22538 4.72972 0.540676
8 1 3.31253 3.44178 2.27397
46 1 4.12297 4.6523 1.91791
44 1 5.31453 5.24123 2.56791
56 1 4.99738 5.65793 5.86673
58 1 5.8794 4.63266 5.67398
70 1 3.01017 5.18295 8.67492
51 1 3.58596 5.64195 6.11214
78 1 4.91575 4.11426 11.7506
68 1 4.05663 4.43307 9.41225
69 1 4.89581 4.80686 10.4946
27 1 4.20643 2.98872 9.08393
37 1 5.73997 3.02579 11.944
47 1 4.57114 7.77357 2.30985
82 1 4.48396 8.69679 1.2592
49 1 5.53686 6.73802 2.63544
92 1 4.58951 8.68074 3.46749
55 1 5.72185 7.00473 5.89257
73 1 4.28205 7.47335 8.99025
62 1 5.57644 7.35689 8.38557
61 1 5.7433 7.97744 7.01706
65 1 3.14316 6.69402 8.61417
72 1 5.8592 6.0027 10.4929
102 1 4.35836 8.70808 9.66853
88 1 3.8935 11.5786 1.891
85 1 3.57395 10.7528 0.880343
91 1 5.57652 9.50509 0.75844
90 1 3.35851 9.36187 0.865016
97 1 5.38091 10.3953 5.38925
94 1 5.37001 11.8032 5.4693
87 1 3.30627 11.1515 3.15764
20 1 3.12323 11.897 4.37396
95 1 5.40912 9.65433 4.03707
93 1 5.39104 9.44715 6.67744
100 1 5.27257 10.1893 7.92893
106 1 4.73251 11.5989 8.563
98 1 3.44768 11.0269 10.4368
99 1 3.33677 9.60762 10.2254
103 1 3.1724 11.6786 11.7375
101 1 5.52344 9.42754 9.08614
33 1 3.52702 11.7306 9.1741
86 1 5.89881 9.64757 11.769
114 1 9.03663 2.07869 -0.0683553
15 1 6.64571 0.380347 5.04064
19 1 6.28811 0.815906 3.59722
123 1 8.91039 0.765996 4.7568
121 1 7.94005 0.0505241 5.47563
137 1 7.06607 0.701701 9.52203
129 1 8.3943 0.282714 9.31832
134 1 6.90877 2.80711 11.0647
147 1 7.89932 4.6363 2.337
139 1 9.03955 5.61765 2.11993
141 1 6.55031 4.69145 3.03682
150 1 8.02642 3.89222 4.97202
156 1 6.67219 4.263 4.53845
151 1 8.5819 5.2727 7.05846
166 1 7.56208 4.54079 7.71219
23 1 6.47652 4.06408 6.99932
165 1 8.75663 4.6732 9.98667
35 1 6.67387 3.2286 9.70311
136 1 8.79861 4.18212 11.2519
130 1 8.24725 2.98082 11.5006
167 1 7.55834 4.23517 9.10868
171 1 7.7369 8.46133 1.66602
140 1 8.03011 8.06833 0.334893
142 1 7.8591 7.58534 2.72668
145 1 7.12988 6.94092 0.18441
144 1 6.62071 7.02633 3.40191
148 1 6.63397 7.12715 4.75274
154 1 7.93275 6.88117 5.40772
153 1 8.54833 6.63193 6.71432
162 1 9.03347 7.70199 7.61509
184 1 8.49769 8.98841 7.36835
81 1 6.11286 6.45831 11.7441
160 1 7.78078 7.32429 9.56972
74 1 6.43735 6.84245 9.394
188 1 8.15776 9.06439 11.558
169 1 6.52479 9.72148 1.79092
174 1 7.60947 10.8066 3.36904
170 1 6.37746 10.1095 3.11417
179 1 8.95226 10.756 3.45142
181 1 8.47474 11.2148 8.52702
180 1 7.88666 9.81075 8.48177
177 1 8.7058 9.68966 6.12445
178 1 8.48365 11.0669 6.2714
104 1 6.86234 9.58146 9.41534
110 1 6.97421 9.37168 10.8751
115 1 10.8848 1.74834 1.88016
112 1 10.1548 1.68298 0.573428
111 1 10.2525 2.07679 3.20896
120 1 9.92443 0.929724 3.90659
126 1 11.1813 0.061473 4.08878
127 1 10.2267 0.40648 7.74733
189 1 11.608 0.00109679 7.32793
131 1 9.63823 1.13475 8.69171
135 1 10.2949 2.05642 9.45638
132 1 11.3954 2.82851 9.82509
119 1 10.0647 4.99599 1.25803
117 1 11.2931 4.68351 1.80435
113 1 9.698 4.57504 -0.00493592
128 1 10.3061 3.44185 3.84428
124 1 9.53436 3.84543 4.96742
146 1 10.9913 4.54626 3.21594
157 1 11.3097 5.76291 3.86053
161 1 10.4334 4.74696 8.5154
155 1 9.87982 4.70021 7.23442
125 1 10.4097 4.10097 6.16135
122 1 11.8216 3.78137 6.36451
163 1 9.59506 5.59079 9.27418
133 1 11.5377 4.06495 9.11414
168 1 11.4381 7.47518 0.496821
143 1 9.16386 6.78849 2.89036
149 1 10.4667 7.89225 4.91572
138 1 10.2822 6.89739 3.72283
152 1 11.3755 7.55671 6.0219
158 1 11.3963 7.15576 10.2883
79 1 11.2316 6.77724 11.6262
164 1 10.5884 7.99581 9.4452
159 1 9.29991 7.21054 9.0939
172 1 9.99501 10.2709 4.24101
173 1 11.0925 11.079 4.66743
176 1 12.0282 10.5784 5.61187
175 1 9.70366 9.24092 5.19777
182 1 11.6692 9.82918 8.19342
186 1 11.6519 10.8568 6.9639
185 1 9.27117 11.5551 7.32539
187 1 10.4652 10.1504 10.2721
190 1 11.1613 11.273 10.4184
191 1 9.35709 9.52797 11.0728
183 1 10.6548 9.47524 9.1065
ITEM: TIMESTEP
5000
ITEM: NUMBER OF ATOMS
191
ITEM: BOX BOUNDS pp pp pp
-7.0470123641478283e-02 1.2070470123641520e+01
-7.0470123641478283e-02 1.2070470123641520e+01
-7.0470123641478283e-02 1.2070470123641520e+01
ITEM: ATOMS id type x y z
116 1 0.296337 1.70653 2.29574
4 1 1.26098 2.62224 1.65821
5 1 2.59517 2.44622 1.92339
12 1 1.22438 0.801104 4.75059
118 1 0.340493 0.886243 3.67621
11 1 0.723871 0.833855 7.19841
32 1 1.58222 0.831166 8.47678
17 1 2.8008 2.27226 6.11468
13 1 1.48921 1.40492 5.98335
28 1 0.788358 0.801943 9.68981
38 1 2.79663 1.9046 10.8128
30 1 1.58296 2.68844 10.8518
29 1 0.463704 2.17664 10.0757
7 1 0.432547 4.88766 1.45287
6 1 0.96394 3.7179 0.833171
45 1 1.3469 5.75593 2.03972
53 1 0.556098 6.04502 4.312
14 1 2.29094 3.57724 6.61672
22 1 0.93722 3.83376 6.99926
63 1 0.78272 4.22403 8.40946
34 1 1.26973 3.86729 11.5393
64 1 1.62461 5.01948 10.704
66 1 1.78797 4.73974 9.24146
43 1 2.21736 8.1723 0.838532
42 1 1.06095 8.12947 1.6496
54 1 2.72427 6.76223 5.46021
50 1 2.064 8.76318 3.68993
52 1 1.15442 6.46457 5.47419
40 1 1.03554 6.57339 3.15449
41 1 1.27107 7.91273 3.04916
59 1 0.127252 6.94534 6.48219
67 1 1.80529 7.34955 8.41113
71 1 0.826291 6.64297 7.74246
108 1 1.4812 8.76694 8.8664
77 1 1.87735 6.32074 11.2764
76 1 1.76308 7.72544 11.6092
75 1 1.2684 9.04726 11.1135
89 1 0.966456 10.8342 0.845359
84 1 1.42423 10.8215 2.1737
80 1 0.342955 9.70243 -0.00768325
96 1 1.08366 10.537 5.36867
21 1 1.89435 11.6313 4.95879
83 1 2.29347 10.0929 3.10408
109 1 0.399551 9.3436 8.22845
107 1 2.01477 9.36529 9.9923
3 1 4.17244 0.611584 1.93842
1 1 3.16592 1.42095 1.23317
2 1 5.4036 0.807398 2.54552
16 1 4.14313 0.0301815 5.44288
18 1 4.00875 1.4161 5.77209
10 1 5.02234 1.91371 6.62661
31 1 3.00903 0.923231 8.80161
9 1 5.63565 2.79172 7.4779
25 1 3.41275 2.01628 9.56648
36 1 3.07255 0.936889 11.8956
48 1 3.90791 4.87399 0.747584
8 1 3.40584 3.4053 2.5876
46 1 4.14525 4.46175 2.09851
44 1 5.22996 5.00244 2.91207
56 1 5.02539 5.74103 5.86571
58 1 5.87463 4.52702 5.76394
57 1 3.15564 4.65412 6.91478
70 1 3.00057 5.27969 8.50769
24 1 5.54645 2.96917 8.87642
51 1 3.6359 5.72447 6.02337
78 1 4.61219 4.43988 11.6655
68 1 4.04545 4.56274 9.34557
69 1 4.61661 5.0249 10.4489
27 1 4.18346 3.18512 9.26304
37 1 5.50983 3.31759 11.882
72 1 5.78164 5.92522 10.3175
47 1 4.58447 7.59072 2.51996
82 1 4.59782 8.51972 1.46481
49 1 5.43091 6.44423 2.67355
92 1 4.36932 8.35235 3.72091
55 1 5.51091 7.08725 5.74259
60 1 3.11113 8.13977 4.5413
61 1 5.39255 7.90573 6.79938
62 1 5.33204 7.27497 8.07987
73 1 4.20063 7.72094 8.92515
65 1 3.08302 6.83093 8.65698
102 1 4.49265 8.99795 9.62517
88 1 3.79778 11.4159 1.97313
85 1 3.49777 10.6293 0.771963
90 1 3.38066 9.07541 0.88533
91 1 5.76833 9.12174 1.14105
97 1 5.55278 10.0039 5.49806
94 1 5.48863 11.4517 5.30634
87 1 3.4272 10.8727 3.33629
95 1 5.55427 9.28105 4.22229
20 1 3.23298 11.601 4.52366
93 1 5.32395 9.31859 6.76638
100 1 5.18358 10.3571 7.82092
106 1 5.03605 11.693 8.27294
98 1 3.5998 11.0757 10.278
99 1 3.27906 9.75974 9.90123
103 1 3.33606 11.5795 11.6068
101 1 5.57965 9.72924 9.12435
33 1 3.84151 11.9223 9.1141
86 1 6.01527 9.62962 11.9169
114 1 8.98602 2.11636 0.108777
15 1 6.61445 0.142985 4.75815
19 1 6.31771 0.772747 3.46449
123 1 8.74137 0.929606 4.4112
121 1 7.92447 -0.0220677 5.10256
26 1 6.18271 0.280811 8.85061
137 1 7.20409 0.543316 9.66537
129 1 8.54024 0.277875 9.31343
147 1 7.78946 4.64189 2.39036
141 1 6.5263 4.52032 3.21474
150 1 8.24273 3.86696 5.00239
156 1 6.82877 4.28329 4.68004
151 1 8.67218 5.09558 7.21731
166 1 7.55704 4.40904 7.82401
23 1 6.4005 3.90747 6.98735
165 1 8.72872 4.72106 9.90286
130 1 8.08875 3.05881 11.6477
35 1 6.59405 3.24208 9.79771
167 1 7.67152 4.08402 9.18535
136 1 8.86966 4.21011 11.1563
134 1 6.72749 3.06894 11.1828
171 1 8.00687 8.40651 1.76718
140 1 8.1235 8.10724 0.375055
142 1 8.08374 7.4087 2.80049
145 1 7.7251 6.70931 0.0283414
144 1 6.80743 6.97752 3.3942
148 1 6.66626 7.08463 4.75628
154 1 7.85398 6.62653 5.49781
153 1 8.57908 6.42789 6.64137
162 1 8.85023 7.54092 7.4494
159 1 9.0899 7.1051 8.80458
184 1 8.35169 8.90992 7.32295
81 1 6.64581 6.13593 11.5825
160 1 7.67555 7.20578 9.5243
74 1 6.33723 6.79081 9.32806
188 1 8.33817 9.11708 11.6201
169 1 6.83997 9.18157 2.01335
174 1 7.65451 10.5808 3.55884
170 1 6.60302 9.67072 3.30316
179 1 8.95084 10.622 3.42505
181 1 8.57695 11.1222 8.40623
180 1 7.943 9.80099 8.52879
178 1 8.41208 11.1886 6.04457
177 1 8.69439 9.76828 6.11405
104 1 6.96145 9.52353 9.5206
110 1 7.09599 9.40156 10.9471
115 1 10.9286 1.92718 1.92239
112 1 10.1788 1.88144 0.715084
111 1 10.2716 2.34035 3.1126
120 1 9.90965 1.12801 3.75941
126 1 11.1652 0.210209 3.8516
127 1 10.1865 0.736218 7.5467
189 1 11.5634 0.242521 7.32873
131 1 9.54745 1.27493 8.91472
135 1 10.2158 2.14306 9.70706
132 1 11.4284 2.87042 9.64282
119 1 10.0467 5.08236 1.31002
117 1 11.2915 4.79616 2.00936
113 1 9.63648 4.83432 -0.00347484
139 1 9.04377 5.33215 2.31981
128 1 10.4491 3.37427 3.91059
124 1 9.67814 3.68424 5.09955
146 1 11.1089 4.60539 3.37321
157 1 11.2535 5.83795 4.00899
161 1 10.4478 4.90877 8.42775
155 1 9.93356 4.45106 7.24061
125 1 10.4783 4.01961 6.13689
133 1 11.5966 4.03736 8.93372
122 1 11.8969 3.88549 6.18707
163 1 9.4893 5.59204 9.19369
168 1 11.0384 7.65902 0.817602
39 1 12.0869 8.66273 1.03068
149 1 10.3514 7.95007 5.13879
138 1 10.2416 6.95434 4.09673
143 1 9.21339 6.63912 3.16685
152 1 11.2459 7.89372 6.17478
158 1 10.9296 7.31675 10.4688
79 1 10.8076 7.03889 11.7398
164 1 10.2969 7.84405 9.29257
172 1 10.0132 10.1545 4.21552
173 1 11.0314 11.0223 4.53825
176 1 11.795 10.6674 5.67787
175 1 9.63745 9.21126 5.16706
182 1 11.2276 9.90153 8.11297
186 1 11.4339 11.0152 7.10009
185 1 9.17243 11.8791 7.18824
187 1 10.1704 10.2323 10.1441
190 1 10.8184 11.4185 10.427
191 1 9.5378 9.72712 11.3207
183 1 10.3555 9.44422 9.07372
105 1 11.9812 11.8528 10.0952
ITEM: TIMESTEP
6000
ITEM: NUMBER OF ATOMS
191
ITEM: BOX BOUNDS pp pp pp
-1.1294620242025838e-01 1.2112946202420313e+01
-1.1294620242025838e-01 1.2112946202420313e+01
-1.1294620242025838e-01 1.2112946202420313e+01
ITEM: ATOMS id type x y z
116 1 0.313156 1.65726 2.36191
4 1 1.29061 2.38414 1.50903
5 1 2.72451 2.37018 1.77398
12 1 1.10133 0.822371 4.89452
118 1 0.19366 0.848234 3.67775
11 1 0.689782 0.858752 7.43219
32 1 1.54156 0.788594 8.58729
31 1 2.93957 0.954691 8.95556
17 1 2.56112 2.28387 6.22915
13 1 1.29982 1.39044 6.16823
28 1 0.740738 0.890149 9.7343
38 1 2.74373 1.89848 11.1271
30 1 1.5504 2.55581 11.0401
29 1 0.453556 2.20893 10.1776
7 1 0.281571 4.67038 1.39893
6 1 0.981906 3.62087 0.8236
45 1 1.08379 5.7748 1.85345