ITEM: TIMESTEP
1000
ITEM: NUMBER OF ATOMS
191
ITEM: BOX BOUNDS pp pp pp
0.0000000000000000e+00 1.2000000000000000e+01
0.0000000000000000e+00 1.2000000000000000e+01
0.0000000000000000e+00 1.2000000000000000e+01
ITEM: ATOMS id type x y z
12 1 1.20509 0.848646 4.8824
1 1 2.45416 2.21262 3.44646
118 1 0.0568909 0.931156 4.21542
31 1 2.7963 1.20012 8.59879
32 1 1.33362 1.11411 8.47168
11 1 0.524598 1.20419 7.34151
17 1 2.71238 2.40746 6.16634
13 1 1.38231 1.67759 6.10224
28 1 0.600435 1.06936 9.68613
29 1 0.380463 2.49177 10.0643
30 1 1.54051 2.88833 10.6729
38 1 2.76966 2.1392 10.5977
4 1 2.18611 3.42645 1.49308
6 1 1.37529 4.1638 0.681185
7 1 0.316389 4.7799 1.23673
5 1 2.72351 3.38718 2.80547
53 1 0.358511 5.83537 4.1516
14 1 2.48962 3.77126 6.47623
22 1 1.04066 4.12647 6.92577
63 1 0.861504 4.89394 8.19573
34 1 1.60511 4.1806 11.3394
64 1 1.84804 5.17285 10.4568
66 1 1.97643 4.87993 9.13738
39 1 0.181589 8.50532 0.712513
43 1 2.65505 8.15867 0.868042
42 1 1.41328 7.99508 1.5577
45 1 0.410238 6.0196 1.6437
40 1 0.607622 6.50916 2.98891
41 1 1.37971 7.70322 2.91852
54 1 2.3679 6.52629 5.21292
50 1 2.14686 8.46843 3.69532
52 1 1.04645 6.21113 5.25484
60 1 2.43505 7.90596 4.88676
59 1 0.319578 6.54721 6.41356
67 1 1.82448 7.31926 8.10585
71 1 0.824954 6.39916 7.65354
108 1 1.50378 8.72625 8.5489
75 1 1.63839 8.73584 10.9
76 1 2.39605 7.75422 11.4558
77 1 2.36185 6.3648 11.1126
89 1 1.68557 10.4378 0.778156
84 1 1.26087 10.293 2.26055
96 1 1.39937 10.5244 5.80047
21 1 1.92503 11.6793 5.0829
83 1 1.97272 9.86486 3.45811
109 1 0.460584 9.13924 7.92927
107 1 1.96788 9.23301 9.68906
80 1 0.964113 9.47731 11.8748
3 1 3.46182 1.23958 3.5408
16 1 4.12741 0.164967 5.50129
2 1 4.94593 1.47411 3.18049
9 1 5.79569 2.82726 7.153
24 1 5.70492 2.43076 8.65892
26 1 5.83625 0.933983 8.58776
10 1 5.33926 2.06308 6.16372
18 1 3.95423 1.52412 6.0336
25 1 3.47206 2.22466 9.36298
36 1 3.1563 1.05003 11.3995
48 1 4.33373 4.65548 0.709691
44 1 5.99016 5.22315 2.44868
46 1 4.83482 4.57961 2.03733
8 1 3.91788 4.06314 2.96916
58 1 5.89245 4.77236 5.62939
56 1 5.05263 5.94244 5.47293
51 1 3.61934 5.79543 5.77172
70 1 3.40603 5.25056 8.37877
57 1 3.29911 4.88631 6.83742
78 1 5.12797 4.29346 11.5245
68 1 4.40579 4.42649 9.42396
69 1 5.059 5.21573 10.3426
27 1 4.47806 3.0505 9.22505
47 1 5.19546 7.94796 2.43487
82 1 4.90455 8.78538 1.39948
92 1 5.0144 8.61295 3.70179
55 1 5.95341 7.18716 5.53858
73 1 4.19161 7.74413 8.55678
62 1 5.53684 7.49362 7.95057
65 1 3.19209 6.8109 8.4114
61 1 5.63671 8.06901 6.60218
72 1 5.55993 6.5066 10.3029
81 1 5.54413 7.76087 11.0694
88 1 3.49987 11.0428 2.1632
85 1 3.16455 10.4098 1.00517
91 1 5.91697 9.71594 1.04399
90 1 3.67653 9.11918 1.0001
94 1 5.51007 11.7138 5.47563
97 1 5.54044 10.2859 5.25334
87 1 3.11333 10.7168 3.43176
20 1 3.18504 11.8843 4.2963
95 1 5.89847 9.73487 4.04418
93 1 5.64775 9.60237 6.45837
100 1 5.39615 10.4731 7.59658
101 1 5.51693 9.71445 8.84227
106 1 4.93343 11.8978 7.96221
33 1 3.59975 11.9983 8.55921
98 1 3.50555 11.1841 9.68144
103 1 3.22428 11.7935 10.9441
99 1 3.27887 9.79207 9.59418
102 1 4.32834 9.07969 9.01661
114 1 8.60925 1.0636 0.341457
15 1 6.28686 1.03729 5.36838
19 1 6.14573 1.31933 3.9212
121 1 7.76238 0.614062 5.91285
128 1 8.88866 2.97665 3.70562
129 1 8.35478 0.18746 9.37563
130 1 8.26103 2.13424 11.4211
137 1 7.02759 0.504277 9.32774
134 1 6.96563 2.54662 10.8961
35 1 6.87822 2.8466 9.43909
147 1 8.12484 3.78741 2.81579
139 1 8.95702 4.71955 2.11283
141 1 6.86754 4.534 3.29409
150 1 8.14886 4.52859 5.47536
156 1 6.87198 4.6036 4.71775
151 1 8.27125 5.07366 6.80782
166 1 7.22697 4.60737 7.64401
23 1 6.11789 4.13615 6.99852
167 1 7.57641 4.01855 8.90824
165 1 8.33637 4.89564 9.7276
37 1 6.09022 3.28999 11.648
49 1 6.32647 6.66491 2.15676
140 1 7.99375 7.68454 0.383597
142 1 8.58072 7.38481 2.5869
145 1 6.96274 6.67636 0.681379
171 1 8.11027 8.45739 1.63405
144 1 7.31434 7.04926 3.2988
148 1 7.18411 7.1601 4.73754
154 1 8.35935 7.1502 5.53352
153 1 8.1698 6.55922 6.73473
162 1 8.58165 7.49694 7.74916
184 1 8.14193 8.93666 7.51019
188 1 7.99517 8.26872 11.0671
74 1 6.48352 6.90777 9.14608
160 1 7.81743 7.2395 9.89896
169 1 7.09657 9.53003 1.87342
174 1 7.97704 10.9841 3.56656
170 1 6.93637 10.1165 3.21665
177 1 8.34338 9.55504 6.12299
178 1 8.10362 11.1346 6.34415
180 1 7.89147 9.70405 8.60484
181 1 8.60636 10.9521 8.71045
185 1 8.91145 11.4014 7.40967
104 1 6.73251 9.58153 9.41521
110 1 6.49943 9.08283 10.8292
86 1 6.07477 10.1283 11.7812
115 1 10.3233 1.23323 2.44296
116 1 11.6482 0.993539 2.82226
112 1 9.70433 1.22206 1.2498
111 1 9.4857 1.66562 3.53701
126 1 10.9251 0.207048 4.75638
120 1 9.76984 1.11383 4.82804
123 1 9.07273 1.35593 5.95414
127 1 9.85358 0.871564 7.35898
189 1 11.3665 0.497339 7.24559
131 1 9.26943 1.27343 8.8753
135 1 9.92736 2.45712 9.72437
136 1 9.31994 2.91918 10.9834
105 1 11.8296 0.0101488 10.1355
119 1 10.0568 4.12402 1.1601
117 1 11.2913 4.10232 1.87838
157 1 11.3328 4.9189 4.17809
124 1 9.18021 3.70881 5.01453
146 1 11.3855 3.97031 3.30822
138 1 10.2186 5.74187 3.89366
161 1 10.2777 4.94223 8.31128
155 1 9.72347 4.77316 7.05922
133 1 11.4486 4.36918 8.8939
122 1 11.7791 3.7662 6.22739
125 1 10.4313 4.01175 6.05778
163 1 9.44619 5.61201 9.18789
113 1 9.86272 3.82653 11.855
132 1 11.2015 3.12199 9.46298
143 1 9.41135 6.11047 2.82495
168 1 11.139 7.60473 0.563201
149 1 9.69535 7.6531 5.41856
152 1 10.827 7.13612 6.19421
159 1 9.168 7.09184 8.9772
158 1 11.2905 7.02504 10.2119
164 1 10.4181 7.84684 9.49228
79 1 11.2299 6.74242 11.5198
172 1 10.0074 10.0659 4.56232
173 1 11.0291 10.7553 5.07982
175 1 9.42791 9.05859 5.30838
179 1 9.28849 10.6904 3.58403
182 1 11.2861 9.8532 8.11419
186 1 11.4828 11.032 7.29613
176 1 11.9937 10.5963 6.03074
187 1 10.2157 9.88624 10.5578
190 1 10.9942 11.1135 10.7664
183 1 10.5117 9.3033 9.2034
191 1 9.03 9.33326 11.045
ITEM: TIMESTEP
2000
ITEM: NUMBER OF ATOMS
191
ITEM: BOX BOUNDS pp pp pp
-1.1144257194076646e-01 1.2111442571940740e+01
-1.1144257194076646e-01 1.2111442571940740e+01
-1.1144257194076646e-01 1.2111442571940740e+01
ITEM: ATOMS id type x y z
5 1 2.99461 2.52734 2.20574
4 1 1.72867 2.74238 1.47907
12 1 1.26926 0.606228 4.89133
118 1 0.23363 0.395315 3.98658
31 1 2.71956 0.965399 8.67888
32 1 1.29718 0.731198 8.5297
11 1 0.593071 0.826321 7.35047
17 1 2.54721 2.19287 6.08226
13 1 1.33022 1.39283 6.12411
28 1 0.33071 0.880381 9.67084
38 1 2.75501 2.03641 10.8113
30 1 1.5569 2.74742 10.9399
29 1 0.377767 2.36639 10.188
7 1 0.456329 4.80829 1.53107
6 1 1.16107 3.85072 0.737689
45 1 1.0333 5.8165 2.15626
14 1 2.22449 3.58226 6.59029
22 1 0.918626 3.90641 7.06903
63 1 0.759304 4.74108 8.33923
34 1 1.48125 4.00442 11.5928
64 1 1.93136 5.13489 10.746
66 1 1.85803 4.74826 9.33704
39 1 0.0804112 8.67122 1.02876
43 1 2.28805 7.98962 0.804378
42 1 1.25877 8.12743 1.69199
54 1 2.39848 6.62981 5.53055
50 1 2.09195 8.74537 3.83248
52 1 0.931658 6.30323 5.57072
40 1 0.964316 6.5731 3.2706
60 1 2.56771 7.90149 4.92947
53 1 0.310525 6.21167 4.34199
41 1 1.29812 7.79638 2.98765
108 1 1.35879 8.55038 8.62912
67 1 1.82302 7.13211 8.38645
71 1 0.772853 6.18715 8.06371
59 1 0.169219 6.62459 6.90419
77 1 2.14074 6.36569 11.3527
76 1 1.71867 7.66805 11.7368
75 1 1.26741 8.8752 11.1797
89 1 1.44196 10.6352 0.736131
84 1 1.25678 10.6889 2.27411
80 1 0.666002 9.63713 0.0393288
96 1 1.164 10.4898 5.6259
21 1 1.87485 11.6188 5.33987
83 1 2.08778 10.1222 3.20381
109 1 0.258958 9.07428 8.04065
107 1 1.82013 9.14885 9.87546
3 1 4.65515 0.50025 2.00862
1 1 3.72098 1.46149 1.93505
2 1 5.91905 0.746877 2.49519
16 1 4.19658 0.0652558 5.48188
18 1 3.82645 1.43321 5.83085
26 1 5.81786 0.803869 8.84326
24 1 5.63107 2.25517 8.64088
10 1 5.03173 1.96164 6.21639
9 1 5.60064 2.83134 7.23118
25 1 3.24919 2.10942 9.45466
36 1 3.01005 0.918228 11.6892
48 1 4.09399 4.66777 0.541401
44 1 5.53804 5.23235 2.68347
46 1 4.54195 4.48177 1.97255
8 1 3.68055 3.5856 2.68588
56 1 4.98983 5.73799 5.56696
58 1 5.85439 4.48296 5.65165
70 1 3.11503 5.11928 8.59867
57 1 3.16139 4.63577 7.00745
51 1 3.42879 5.72306 5.94844
78 1 4.87899 4.56691 11.6393
68 1 4.25394 4.45917 9.34638
69 1 4.74301 5.19947 10.3731
37 1 5.90495 3.57751 11.6555
27 1 4.36651 2.97416 9.22993
47 1 4.94947 7.80099 2.33659
82 1 4.62816 8.79597 1.27764
49 1 5.9133 6.62132 2.18602
92 1 5.10369 8.47205 3.55706
55 1 5.7013 7.05734 5.48516
73 1 4.02698 7.72504 8.5838
62 1 5.51814 7.49438 7.96641
61 1 5.69585 8.03294 6.58156
65 1 3.2087 6.66847 8.49915
102 1 4.29399 9.08003 9.12968
72 1 5.38452 6.45653 10.083
81 1 5.40422 7.57332 10.9186
88 1 3.81082 11.1472 2.07288
85 1 3.19117 10.7151 0.701655
91 1 5.72557 9.65255 0.950615
90 1 3.29325 9.16659 0.908738
97 1 5.61075 10.2912 5.24749
94 1 5.5676 11.7144 5.45258
20 1 3.20001 11.6069 4.71443
87 1 3.4042 10.9149 3.36984
95 1 5.79371 9.61173 4.01335
93 1 5.40629 9.57951 6.44035
100 1 5.23679 10.7501 7.80762
101 1 5.52066 9.83508 8.80517
33 1 3.62406 12.0345 9.05584
106 1 4.9184 12.0277 8.29691
98 1 3.3011 11.1168 10.086
103 1 3.21576 11.6845 11.3911
99 1 3.1879 9.67144 9.95473
86 1 5.9019 10.0601 11.8643
114 1 8.7121 1.87939 0.397862
15 1 6.77427 0.17022 4.96527
19 1 6.77124 0.680738 3.46013
121 1 8.08496 0.050856 5.57421
129 1 8.37362 0.426116 9.55414
130 1 8.16095 2.55701 11.5013
137 1 6.94159 0.452973 9.90687
134 1 6.85592 2.70452 10.9957
147 1 7.75438 4.61289 2.3999
139 1 8.93889 5.33465 2.02439
141 1 6.59228 4.53823 3.28773
150 1 8.22195 3.75684 4.87678
156 1 6.91391 4.34978 4.72334
151 1 8.50576 5.32554 6.96851
166 1 7.46619 4.55243 7.71239
23 1 6.21757 4.11336 7.09201
167 1 7.60396 3.99679 9.05459
165 1 8.6837 4.42552 9.86091
35 1 6.6831 2.97577 9.45967
171 1 7.93616 8.45138 1.46523
140 1 7.62257 7.68983 0.225648
142 1 8.18941 7.58012 2.57083
145 1 6.65053 6.63294 0.743341
144 1 6.97496 7.1507 3.25607
148 1 6.98386 6.97022 4.74556
154 1 8.22643 7.10059 5.39125
153 1 8.44788 6.61454 6.62135
162 1 8.54454 7.60698 7.62223
188 1 7.88425 8.26591 11.1233
160 1 7.52004 7.24792 9.76761
74 1 6.34374 6.91167 9.11563
110 1 6.50223 9.06951 10.8721
159 1 9.00985 7.13065 9.01713
169 1 6.95253 9.48573 1.74637
174 1 8.10587 10.9178 3.36958
170 1 6.95978 9.9713 3.24682
177 1 8.83937 9.72451 6.21518
178 1 8.61889 11.1371 6.29336
180 1 7.92915 9.90085 8.76897
181 1 8.54206 11.1769 8.75813
184 1 8.46747 9.07251 7.60394
104 1 6.75277 9.61108 9.47364
191 1 8.97823 9.37525 10.8648
115 1 10.8436 1.54169 2.13106
112 1 9.81379 1.44932 1.05686
116 1 12.1939 0.880627 2.6845
111 1 10.211 2.09616 3.3721
126 1 11.2592 0.191416 4.60854
120 1 10.2143 1.12291 4.49638
123 1 9.07713 1.0839 5.35365
127 1 10.2508 0.573017 7.87597
189 1 11.5855 0.161347 7.42972
135 1 10.1111 2.51739 9.71563
131 1 9.55003 1.37645 9.05354
105 1 11.6252 -0.0883027 10.1515
119 1 9.95999 4.74657 1.11904
117 1 11.3188 4.60563 1.70934
128 1 10.5382 3.39311 3.81041
124 1 9.6883 3.66571 5.01667
146 1 10.9748 4.51413 3.21432
157 1 11.1575 5.76761 3.86264
161 1 10.4946 5.08159 8.48125
155 1 9.92206 4.82654 7.13464
125 1 10.5288 4.07572 6.17661
122 1 11.8427 3.77898 6.41703
133 1 11.6333 4.43012 8.93983
163 1 9.3904 5.54178 9.19673
113 1 9.75291 4.27569 12.0554
136 1 9.31019 3.42826 10.7869
132 1 11.4493 3.11759 9.64651
143 1 9.1981 6.57471 2.76324
168 1 11.1299 8.1217 0.766109
149 1 9.39695 7.617 4.75177
138 1 10.0374 6.71958 3.87194
152 1 11.2586 7.44552 6.70846
158 1 11.1489 7.44181 10.3819
164 1 10.4117 7.92534 9.38154
79 1 10.8128 7.48623 11.7255
172 1 10.2359 10.1321 4.30592
173 1 11.1814 10.9801 4.84981
179 1 9.45496 10.7752 3.43446
175 1 9.55799 9.10073 5.10035
176 1 12.0258 10.6388 5.87569
182 1 11.41 9.8574 8.1389
186 1 11.5365 10.9809 7.23817
185 1 9.32348 11.5754 7.57382
187 1 10.0608 9.94359 10.262
190 1 10.6885 11.211 10.3924
183 1 10.5604 9.35171 9.02779
ITEM: TIMESTEP
3000
ITEM: NUMBER OF ATOMS
191
ITEM: BOX BOUNDS pp pp pp
-2.2041559161852914e-01 1.2220415591618497e+01
-2.2041559161852914e-01 1.2220415591618497e+01
-2.2041559161852914e-01 1.2220415591618497e+01
ITEM: ATOMS id type x y z
5 1 2.53722 2.78058 2.18608
12 1 0.929314 0.321364 4.9881
118 1 -0.0395661 0.741053 3.96338
31 1 2.41 0.805918 8.85026
32 1 1.03056 0.601984 8.64106
11 1 0.384767 0.581932 7.45415
17 1 2.36672 1.91165 6.45986
13 1 1.15171 1.06754 6.32235
28 1 0.181345 0.622306 9.92192
38 1 2.51986 1.93636 10.99
30 1 1.21327 2.58802 11.0869
29 1 0.0727571 1.98718 10.3674
36 1 2.69289 0.772413 11.7318
7 1 0.101327 4.86432 1.35128
6 1 0.678797 4.03026 0.485593
45 1 0.995085 5.51738 2.15568
4 1 1.5554 3.26797 1.29283
14 1 2.13509 3.29412 6.56705
63 1 0.734678 5.0059 8.65254
22 1 0.749963 3.59595 6.61992
34 1 1.03579 4.02431 11.5784
64 1 1.6186 5.01219 10.7871
66 1 2.02367 4.70105 9.32361
39 1 0.280595 8.39904 0.44394
42 1 1.53671 7.88813 1.29263
43 1 2.66395 8.14476 0.387833
41 1 1.7435 7.64396 2.69218
54 1 2.53381 6.75152 5.44614
50 1 2.28185 8.65803 3.55263
52 1 1.13002 6.35378 5.55661
40 1 1.15065 6.39205 3.1663
60 1 2.73318 8.06636 4.76047
53 1 0.409098 6.25495 4.35417
108 1 1.32345 8.49642 8.77412
67 1 1.87394 7.17884 8.49357
71 1 1.10874 6.20723 7.96567
59 1 0.373299 6.55755 6.78816
109 1 0.113824 8.67288 8.07349
152 1 -0.255516 7.73415 6.91195
77 1 2.24466 6.31184 11.2335
76 1 2.1673 7.73067 11.4807
75 1 1.52538 8.91887 10.9303
89 1 1.48599 10.3839 0.565212
84 1 1.08861 10.242 1.98652
96 1 0.891432 10.4145 5.80237
21 1 1.64615 11.5496 5.17905
83 1 2.01213 9.9642 3.05246
107 1 1.89428 9.34262 9.67222
80 1 0.885456 9.52575 12.0533
3 1 4.02341 0.57106 2.25135
1 1 3.02312 1.55199 2.15539
2 1 5.32117 0.889652 2.75642
16 1 3.97843 -0.127159 5.39166
26 1 5.87187 0.718206 8.67444
24 1 5.57994 2.18509 8.63912
10 1 4.81163 2.00087 6.04051
9 1 5.55459 2.80728 7.1467
18 1 3.76438 1.18064 5.97201
27 1 4.14295 2.74579 9.07102
25 1 2.98718 1.96332 9.47638
37 1 5.60482 2.76832 11.7588
48 1 4.49331 4.47238 0.420192
44 1 5.51758 5.49135 2.41261
46 1 4.48115 4.60186 1.79068
8 1 3.55103 3.81484 2.53782
56 1 5.14845 6.01829 5.5836
51 1 3.71143 5.81391 5.96233
57 1 3.17834 4.65127 7.00777
70 1 3.31363 5.14322 8.58454
78 1 4.95795 3.96416 11.6636
69 1 4.94863 4.71528 10.4157
68 1 4.29048 4.24183 9.14654
72 1 6.03563 5.86443 10.5534
47 1 5.06854 8.02929 1.91508
49 1 5.80958 6.66251 1.53892
82 1 4.84078 9.09949 1.10527
92 1 5.88842 8.38049 3.24901
55 1 5.96637 7.285 5.97873
65 1 3.25844 6.6911 8.5782
62 1 5.75556 7.48735 8.59347
61 1 5.78533 8.23303 7.07795
73 1 4.31872 7.53576 8.93496
88 1 3.47248 11.6842 2.00888
90 1 3.521 9.21611 0.512707
91 1 5.87707 9.83706 0.644895
85 1 3.0918 10.7688 0.479986
97 1 5.70702 10.3233 5.09895
94 1 5.34613 11.6655 5.23023
87 1 3.00874 10.8924 3.36402
20 1 2.94261 11.4956 4.72148
93 1 5.55915 9.63824 6.47216
100 1 5.44149 10.8147 7.85721
106 1 4.85289 12.0748 8.33514
33 1 3.47028 12.1934 9.05901
101 1 5.70623 9.88112 9.01744
98 1 3.37387 11.2928 10.234
103 1 3.10777 11.8389 11.5871
99 1 3.11436 9.97789 9.76593
102 1 4.21452 9.10514 9.40584
114 1 8.71308 1.84854 0.259188
123 1 8.73801 0.724867 4.8197
19 1 6.21378 0.797428 3.73196
15 1 6.45263 0.00630103 4.8944
129 1 8.41632 0.253424 9.20837
130 1 8.16067 2.59787 11.562
137 1 7.04554 0.54195 9.50858
134 1 6.8628 2.6058 11.0164
147 1 7.85873 4.85518 2.24359
139 1 8.91365 5.58559 1.7586
156 1 6.8638 4.39121 4.49136
150 1 8.13681 3.87851 4.87401
141 1 6.63639 4.74818 2.93039
58 1 6.00986 4.79118 5.56513
151 1 8.54872 5.41031 7.19709
166 1 7.43369 4.54664 7.7526
23 1 6.27481 4.13705 6.95005
167 1 7.53647 3.80022 8.96158
165 1 8.51047 4.36621 9.83652
35 1 6.61614 2.85247 9.59387
81 1 6.57336 5.90304 11.8873
171 1 7.81675 8.58825 1.37755
140 1 7.7529 7.67201 0.338118
145 1 6.9151 6.57119 0.547806
142 1 8.09941 7.84385 2.62643
144 1 7.04428 7.58371 3.70279
148 1 7.21455 7.40336 5.0918
154 1 8.39754 7.1662 5.65255
153 1 8.44359 6.80999 7.00073
162 1 8.63704 7.77261 7.98219
188 1 8.13841 8.04268 11.4417
160 1 7.81284 7.37219 10.1649
74 1 6.545 6.82181 9.55426
159 1 8.96098 6.95838 9.2749
169 1 7.06322 9.86134 1.47978
170 1 7.02307 10.5246 2.8429
174 1 8.29323 11.0055 2.98621
95 1 6.09806 9.81656 3.7385
121 1 7.80451 12.2154 5.26304
181 1 8.50072 11.5853 8.42235
178 1 8.4082 11.2303 6.15169
180 1 8.05082 10.177 8.54256
177 1 8.71373 9.74688 6.17585
185 1 9.20718 11.8886 7.22411
184 1 8.5389 9.0987 7.54107
104 1 6.98748 9.9626 9.50566
110 1 7.23402 10.0003 10.8244
86 1 6.16241 10.2549 11.7308
191 1 8.46756 9.42776 11.1987
115 1 10.6098 1.74891 2.20091
112 1 9.79875 1.52054 1.09633
116 1 11.9502 1.19554 2.60547
111 1 9.85694 2.28147 3.35179
126 1 11.0688 0.292928 4.52915
120 1 9.91594 1.14764 4.33888
127 1 10.3431 0.686911 7.86224
189 1 11.5511 -0.00386 7.68809
131 1 9.66778 1.10019 9.08834
135 1 10.1046 2.42569 9.82295
132 1 11.596 2.84951 9.76636
119 1 9.87498 4.86523 1.10948
117 1 11.1909 4.79558 1.90841
128 1 10.269 3.49585 3.84082
124 1 9.55783 3.75766 5.11427
146 1 10.9463 4.84669 3.29532
161 1 10.4521 5.07429 8.55704
155 1 9.89726 4.92618 7.22366
133 1 11.7424 4.38366 9.01027
125 1 10.5255 4.17929 6.22048
122 1 11.9678 3.87356 6.2451
163 1 9.33181 5.46862 9.50778
136 1 9.26146 3.44616 10.8017
113 1 9.7913 4.24744 12.1041
168 1 11.4414 7.8814 0.489073
143 1 9.14369 6.74947 2.72784
149 1 9.56729 7.63986 4.9104
138 1 10.1515 6.98773 3.91186
175 1 9.87469 9.17693 5.42581
157 1 11.2696 6.05653 4.00242
158 1 10.9694 7.03584 10.5967
164 1 10.223 7.66356 9.70997
79 1 11.0282 7.26377 11.9409
183 1 10.5856 9.05135 9.53432
172 1 10.3563 10.1089 4.43786
173 1 11.2076 11.2104 5.08294
179 1 9.47505 10.3445 3.43596
182 1 11.5077 9.60751 8.23038
186 1 11.5679 10.9307 7.55771
176 1 12.0328 10.5915 6.23831
187 1 9.72302 10.0311 10.5063
190 1 10.5925 11.2499 10.7302
105 1 11.6783 12.0668 10.2619
ITEM: TIMESTEP
4000
ITEM: NUMBER OF ATOMS
191
ITEM: BOX BOUNDS pp pp pp
-1.3568136005099035e-01 1.2135681360050922e+01
-1.3568136005099035e-01 1.2135681360050922e+01
-1.3568136005099035e-01 1.2135681360050922e+01
ITEM: ATOMS id type x y z
5 1 2.72551 2.82254 2.25847
4 1 1.45775 2.78253 1.68212
12 1 1.244 0.506045 4.8533
118 1 0.0727538 0.742157 4.04287
11 1 0.655216 0.67847 7.40822
32 1 1.23663 0.647294 8.7834
31 1 2.71043 0.781924 9.03603
17 1 2.61065 2.06461 6.06739
13 1 1.38303 1.16225 6.20563
28 1 0.309037 0.792159 9.79855
38 1 2.48745 1.88281 11.0301
30 1 1.21031 2.55766 11.0102
29 1 0.0922065 2.24496 10.136
36 1 2.51874 0.616634 11.7025
7 1 0.187608 4.75315 1.40197
6 1 0.893017 3.79621 0.88856
45 1 1.0061 5.59311 2.07912
14 1 2.3711 3.5115 6.41742
63 1 0.543221 4.78851 8.75327
22 1 0.847006 3.78171 6.05561
71 1 0.884403 5.92396 7.96233
34 1 1.15563 3.78712 11.805
64 1 1.76624 4.87184 11.0804
66 1 1.53921 4.55021 9.71316
39 1 0.0832054 8.37377 0.603077
42 1 1.09298 8.25412 1.58219
43 1 2.52369 8.37071 0.80323
41 1 1.1035 7.77424 2.88546
54 1 2.34577 6.55734 5.29352
50 1 1.98532 8.69651 3.63058
52 1 0.823779 6.22929 5.38508
53 1 0.102215 6.20183 4.2755
40 1 0.88312 6.42038 3.14034
60 1 2.61405 7.81746 4.60576
108 1 1.4115 8.36705 8.64789
67 1 1.94287 6.97879 8.36904
109 1 0.104772 8.71696 8.00102
59 1 0.178215 6.53831 6.74575
77 1 2.47602 6.19036 11.5715
76 1 2.36964 7.53298 11.8307
75 1 1.49034 8.45891 10.996
107 1 1.99824 8.99063 9.81334
89 1 0.825309 10.5742 0.360726
84 1 1.15354 10.4045 1.7174
83 1 2.19179 9.90086 2.8583
21 1 1.85715 11.5278 4.84861
96 1 1.1958 10.4919 5.51097
176 1 -0.121179 10.5221 5.96353
80 1 0.715078 9.33357 11.8681
3 1 4.42713 0.521802 2.09039
1 1 3.60486 1.71171 2.34774
2 1 5.72541 0.818233 2.53429
16 1 4.21324 -0.113731 5.18436
18 1 3.9471 1.2858 5.85369
10 1 5.05611 1.80043 6.43189
9 1 5.91108 2.78299 7.12411
24 1 5.58907 2.80698 8.71234
25 1 3.31247 1.96014 9.75066
26 1 5.74697 0.360067 9.14981
48 1 4.27761 4.59687 0.42975
44 1 5.55798 5.29557 2.33692
46 1 4.38798 4.60085 1.85918
8 1 3.24408 4.08315 2.50685
51 1 3.47205 5.65253 5.79166
56 1 4.94473 5.78406 5.51693
58 1 5.97245 4.60883 5.56592
70 1 3.55346 5.26223 8.15476
57 1 3.09738 4.73308 6.83205
78 1 4.76958 4.13801 11.5083
69 1 4.74252 4.91996 10.3303
68 1 3.94128 4.44534 9.21645
72 1 5.76971 5.9888 10.3289
27 1 4.15967 2.96538 9.19601
37 1 5.84634 3.25091 11.8436
47 1 5.23583 8.08898 2.2332
49 1 5.80561 6.75466 1.6413
92 1 5.8349 8.37359 3.4797
55 1 5.80287 6.99808 5.64927
65 1 3.31803 6.66311 8.32034
62 1 5.65364 7.43714 8.15098
61 1 5.80718 7.98018 6.78987
73 1 4.35752 7.62862 8.62764
102 1 4.34097 8.90711 9.41859
88 1 3.80401 11.562 1.94621
90 1 3.56462 9.48535 0.85813
85 1 3.49409 10.9146 0.698036
91 1 5.88359 9.88158 0.776342
82 1 4.77045 9.16617 1.33938
97 1 5.65177 10.1661 5.30222
94 1 5.51373 11.5374 5.35319
87 1 3.20283 10.899 3.19631
20 1 3.13037 11.5575 4.35033
93 1 5.57757 9.56591 6.66623
100 1 5.26831 10.4355 7.76157
106 1 4.83608 11.7866 8.25698
98 1 3.3854 10.9941 10.3016
103 1 3.12891 11.4894 11.5747
99 1 3.24467 9.59143 9.93508
33 1 3.49191 11.756 9.06836
101 1 5.54092 9.67836 9.06642
114 1 8.73389 2.03243 0.594208
123 1 8.68769 0.992108 5.22448
19 1 6.32406 0.681725 3.69698
15 1 6.50213 0.0278807 5.0199
121 1 7.84018 -0.0829672 5.68308
129 1 8.34152 0.56644 9.3239
130 1 8.30139 2.73153 11.6482
134 1 6.89781 2.85409 11.0748
137 1 6.97772 0.903658 9.2616
147 1 7.87991 4.60315 2.2317
139 1 8.95003 5.39216 1.95096
141 1 6.64395 4.56563 2.95747
156 1 6.87665 4.48131 4.44879
150 1 8.13347 4.06376 4.83197
151 1 8.32157 5.37954 7.16195
166 1 7.18698 4.6138 7.6548
23 1 6.30359 4.03455 6.75416
167 1 7.46346 4.18513 8.97994
165 1 8.632 4.58473 9.66386
35 1 6.77711 2.9721 9.57121
81 1 6.28159 5.89063 11.7342
171 1 7.96859 8.57459 1.36864
140 1 7.53067 7.87976 0.148575
145 1 6.74676 6.70824 0.517422
142 1 8.05288 7.65717 2.64626
143 1 8.99934 6.58943 2.68966
144 1 7.04862 7.62503 3.68236
148 1 7.13903 7.05604 4.99026
154 1 8.36104 7.22892 5.67157
153 1 8.39081 6.81434 6.94651
162 1 8.70348 7.76512 7.91992
188 1 8.01415 8.24574 11.1322
160 1 7.72491 7.39603 9.97982
74 1 6.43687 7.01107 9.53123
169 1 7.05205 9.70783 1.59637
170 1 7.02044 10.3307 2.842
174 1 8.25159 10.8719 3.1048
95 1 6.1029 9.77407 3.85203
181 1 8.49281 11.4634 8.83714
178 1 8.59163 11.1583 6.36963
180 1 7.93451 10.1808 8.69162
177 1 8.86657 9.67888 6.30152
184 1 8.4686 9.14062 7.64548
104 1 6.82923 10.1137 9.51161
110 1 7.2529 10.2958 10.8675
86 1 6.30945 10.5374 11.7869
191 1 8.51502 9.63387 10.9111
115 1 10.7228 1.65963 2.38123
112 1 9.75676 1.66191 1.39427
116 1 12.1001 1.25521 2.74571
111 1 10.0953 2.1887 3.55508
126 1 11.0709 0.220822 4.6884
120 1 9.95313 1.19675 4.72943
127 1 10.2622 0.44698 7.83098
189 1 11.5551 -0.0243199 7.60088
131 1 9.54638 1.40081 8.70285
135 1 10.0457 2.46674 9.72971
119 1 10.0471 4.89928 1.08555
117 1 11.1872 4.62871 1.91568
128 1 10.2358 3.57843 3.91647
124 1 9.55921 3.87939 5.06715
146 1 10.8175 4.58022 3.32741
157 1 11.074 5.90361 3.84405
161 1 10.4435 5.08356 8.45469
155 1 9.67335 4.89494 7.24143
125 1 10.4264 4.09524 6.30413
133 1 11.4851 4.23393 8.99444
122 1 11.7915 3.96842 6.10025
163 1 9.43792 5.70126 9.36997
132 1 11.2993 3.01357 9.57168
136 1 9.20632 3.50363 10.7895
113 1 9.59811 4.64725 12.0297
168 1 11.4018 7.41903 0.45609
149 1 9.48085 7.74625 5.02773
138 1 9.98526 6.88753 3.80461
152 1 11.9915 7.73734 6.97356
158 1 11.1543 7.20945 10.3854
164 1 10.4182 7.99381 9.58137
79 1 11.5396 6.77689 11.5339
159 1 9.05752 7.21508 9.25616
172 1 10.2539 10.1393 4.3077
173 1 11.1432 11.0918 4.98664
179 1 9.50286 10.7319 3.29269
175 1 9.58303 9.11898 5.22647
182 1 11.5669 9.77722 8.26968
186 1 11.7576 10.8392 7.32059
185 1 9.21833 11.641 7.58595
187 1 9.97149 10.1145 10.3765
190 1 10.7977 11.2806 10.8193
183 1 10.4878 9.42613 9.22916
105 1 11.8299 12.0975 10.4521
ITEM: TIMESTEP
5000
ITEM: NUMBER OF ATOMS
191
ITEM: BOX BOUNDS pp pp pp
-5.7962956463117402e-02 1.2057962956463056e+01
-5.7962956463117402e-02 1.2057962956463056e+01
-5.7962956463117402e-02 1.2057962956463056e+01
ITEM: ATOMS id type x y z
4 1 1.31251 2.49839 1.90342
116 1 0.123275 1.83655 2.54563
5 1 2.718 2.35422 2.18115
12 1 1.23679 0.660812 4.82424
118 1 0.295808 0.978529 3.83179
11 1 0.637607 0.842038 7.40307
32 1 1.30272 0.814269 8.63427
31 1 2.73898 0.812068 8.87013
17 1 2.63736 2.09537 6.22624
13 1 1.26148 1.34202 6.08233
28 1 0.362263 0.800492 9.7694
38 1 2.64604 1.93605 11.0032
30 1 1.45512 2.53578 11.0356
29 1 0.347337 2.16753 10.2936
7 1 0.269108 4.5826 1.56558
6 1 0.955398 3.56959 0.876641
45 1 1.06168 5.5191 2.21515
14 1 2.33556 3.6008 6.62272
22 1 0.964858 3.83425 6.2978
57 1 2.99829 4.79161 7.04392
63 1 0.759017 4.95955 8.67275
34 1 1.38795 3.84468 11.6024
64 1 1.73667 5.00335 10.9463
66 1 1.76728 4.83133 9.5441
39 1 0.276189 8.329 0.876599
42 1 1.71669 8.07952 1.53793
43 1 2.74769 8.18855 0.629735
41 1 1.64482 7.61196 2.8032
54 1 2.52704 6.44082 5.35398
50 1 2.33636 8.48928 3.68694
52 1 1.00324 6.39583 5.53136
53 1 0.29391 6.168 4.34337
40 1 0.972653 6.50129 3.16467
60 1 2.8649 7.78119 4.81416
108 1 1.32816 8.51266 8.49682
67 1 1.84306 7.1573 8.47376
71 1 0.91314 6.18145 7.95844
59 1 0.304059 6.60648 6.77182
109 1 0.120735 8.78757 7.90689
77 1 2.00059 6.26572 11.5045
76 1 2.22331 7.60847 11.5949
75 1 1.36579 8.75969 11.028
89 1 0.860508 10.5137 0.914447
84 1 1.38252 10.2904 2.10203
80 1 0.607207 9.47436 -0.0550929
21 1 1.91833 11.5495 4.80583
96 1 1.21488 10.4475 5.34623
83 1 2.39355 9.87642 2.98179
107 1 1.78182 9.14955 9.78165
3 1 4.55798 0.588586 1.80294
1 1 3.48366 1.34324 1.27578
2 1 5.64594 1.1574 2.51255
16 1 4.13134 0.155098 5.282
18 1 3.95247 1.40885 5.89217
10 1 5.02176 2.02268 6.41714
26 1 6.01958 0.477217 8.29728
24 1 5.5443 2.76031 8.784
9 1 5.61338 2.82833 7.37153
25 1 3.16261 1.95549 9.6241
36 1 3.1502 0.917818 11.9883
37 1 5.53482 3.00573 11.8088
27 1 4.07619 2.92335 9.24576
48 1 4.05785 4.60052 0.687472
44 1 5.47937 5.26651 2.40183
46 1 4.359 4.46887 2.06528
8 1 3.56028 3.41987 2.75249
58 1 5.92155 4.57119 5.59714
56 1 5.08625 5.73045 5.69309
51 1 3.56282 5.74855 5.95696
70 1 3.08924 5.12574 8.58978
78 1 4.73157 4.14047 11.6391
69 1 4.787 4.97584 10.555
68 1 4.03715 4.39079 9.35423
72 1 5.84925 5.94501 10.4848
47 1 5.08388 7.88807 2.34228
49 1 5.6052 6.65465 1.75367
82 1 4.91555 8.93899 1.3547
92 1 5.80147 8.23842 3.493
55 1 5.91653 6.86875 5.94475
65 1 3.11047 6.83487 8.76418
62 1 5.53421 7.42868 8.44467
61 1 5.69284 7.95835 7.0223
73 1 4.16903 7.59232 8.93811
102 1 4.37466 8.90293 9.62322
88 1 4.11842 11.2471 1.92624
90 1 3.7117 9.19456 0.677432
85 1 3.60307 10.665 0.665409
91 1 5.94444 9.87948 1.01293
97 1 5.72822 10.1446 5.33702
94 1 5.38858 11.5732 5.37082
87 1 3.47015 10.8822 3.18828
20 1 3.16508 11.599 4.40693
95 1 5.91353 9.57224 3.9732
93 1 5.64495 9.49699 6.70157
100 1 5.28001 10.298 7.83162
106 1 4.96859 11.7119 8.27394
98 1 3.40329 11.0982 10.2965
103 1 3.36322 11.6239 11.6431
101 1 5.59231 9.64377 9.10113
99 1 3.1474 9.69304 10.0219
33 1 3.61917 11.805 9.01156
15 1 6.3845 0.385208 4.83646
121 1 7.71156 -0.143866 5.14068
19 1 5.97563 1.14822 3.73366
123 1 8.68698 0.742505 4.49119
134 1 6.7396 2.69827 11.022
130 1 8.1486 2.82865 11.4548
137 1 7.14135 0.983495 9.23635
129 1 8.51991 0.563273 9.00521
147 1 7.901 4.71107 2.35498
139 1 8.95026 5.60281 2.09611
156 1 6.92669 4.42575 4.50281
150 1 8.15096 3.78701 4.98269
141 1 6.71664 4.79266 3.12168
151 1 8.44107 5.17147 7.17674
166 1 7.27072 4.54795 7.68515
23 1 6.40241 3.86983 6.85379
165 1 8.4418 4.76754 9.79819
81 1 6.50013 5.98643 11.6789
136 1 8.80904 4.18111 11.0167
167 1 7.36103 4.25398 9.13846
35 1 6.55063 3.09993 9.57078
171 1 7.76721 8.58671 1.69955
140 1 7.63051 7.77944 0.524082
145 1 6.65882 6.70912 0.645168
142 1 8.15269 7.81914 2.88661
144 1 7.06967 7.56507 3.77346
148 1 7.05435 7.02895 5.05934
154 1 8.37995 6.93187 5.58859
153 1 8.41722 6.70896 6.88534
162 1 8.49223 7.71092 7.96325
188 1 7.98445 8.24575 11.4004
160 1 7.62167 7.48754 10.0798
74 1 6.33699 6.96632 9.5671
159 1 8.77228 7.13969 9.26686
169 1 6.94696 9.71828 1.85876
174 1 8.32899 10.9237 3.35325
170 1 6.94209 10.3101 3.17832
178 1 8.5328 11.0855 5.9968
181 1 8.62239 11.371 8.44059
180 1 7.93153 10.1325 8.51213
177 1 8.58065 9.58372 6.1122
184 1 8.273 9.12681 7.54186
104 1 6.84275 10.0542 9.40053
110 1 7.23635 10.2615 10.85
86 1 6.23142 10.3163 11.8881
191 1 8.52367 9.6335 10.8929
115 1 10.8546 1.85649 1.98734
112 1 10.1867 1.98559 0.855512
114 1 9.15182 1.90077 0.0572729
111 1 10.0945 2.155 3.17628
120 1 9.93913 1.00861 4.10324
126 1 11.1424 0.196147 4.12727
127 1 10.1405 0.584312 7.49516
189 1 11.4754 0.135715 7.37006
131 1 9.65258 1.36179 8.54626
135 1 10.3581 2.37156 9.1779
105 1 11.5689 -0.0501741 10.4395
119 1 9.8618 5.15121 1.20721
117 1 11.0742 4.64965 1.88313
113 1 9.34297 4.87329 -0.0633953
128 1 10.3559 3.43918 3.80136
124 1 9.59131 3.69024 5.01249
146 1 10.9585 4.66895 3.33914
157 1 11.1373 5.85776 4.07919
161 1 10.315 5.0127 8.61105
155 1 9.84234 4.66847 7.23304
125 1 10.3744 4.00052 6.14636
122 1 11.7802 3.84374 6.10878
163 1 9.31619 5.71202 9.41908
132 1 11.5809 2.98965 9.70137
133 1 11.5721 4.3804 9.18209
168 1 11.4166 7.34321 0.822037
143 1 9.19071 6.78134 2.83461
149 1 9.48244 7.50667 4.97179
138 1 10.0726 6.772 3.91667
175 1 9.37742 8.89733 5.10405
152 1 11.681 7.77818 7.0199
158 1 11.0291 7.18718 10.3229
164 1 10.1471 8.13485 9.50832
79 1 11.1366 6.88551 11.6854
172 1 10.2725 9.89122 4.15864
173 1 11.0314 10.9988 4.67161
179 1 9.42315 10.2632 3.13553
176 1 11.9525 10.5564 5.68657
182 1 11.3428 9.88778 8.20508
186 1 11.4476 10.7845 7.02268
185 1 9.15204 11.6298 7.10617
187 1 9.66258 10.3321 10.265
190 1 10.3371 11.4989 10.5927
183 1 10.3554 9.4872 9.20142
ITEM: TIMESTEP
6000
ITEM: NUMBER OF ATOMS
191
ITEM: BOX BOUNDS pp pp pp
-9.0356317225728414e-02 1.2090356317225664e+01
-9.0356317225728414e-02 1.2090356317225664e+01
-9.0356317225728414e-02 1.2090356317225664e+01
ITEM: ATOMS id type x y z
4 1 1.14079 2.54296 1.74192
116 1 0.133051 1.683 2.45448
5 1 2.62983 2.3907 1.75045
12 1 1.17768 0.839233 4.91216
118 1 0.169581 0.906032 3.9118
11 1 0.54292 0.836128 7.37523
32 1 1.39319 0.574909 8.52265
31 1 2.82274 0.722836 8.88966
17 1 2.4026 2.16539 6.50374
13 1 1.21376 1.46562 6.23346
28 1 0.446042 0.680589 9.73228
38 1 2.5623 1.65773 10.9203
30 1 1.44098 2.49765 11.0191
29 1 0.300705 2.09311 10.24
36 1 3.01039 0.795964 11.8862
7 1 0.142138 4.73152 1.41308
6 1 0.697398 3.62846 0.719329