ITEM: TIMESTEP
1000
ITEM: NUMBER OF ATOMS
191
ITEM: BOX BOUNDS pp pp pp
0.0000000000000000e+00 1.2000000000000000e+01
0.0000000000000000e+00 1.2000000000000000e+01
0.0000000000000000e+00 1.2000000000000000e+01
ITEM: ATOMS id type x y z
12 1 1.20509 0.848646 4.8824
1 1 2.45416 2.21262 3.44646
118 1 0.0568909 0.931156 4.21542
31 1 2.7963 1.20012 8.59879
32 1 1.33362 1.11411 8.47168
11 1 0.524598 1.20419 7.34151
17 1 2.71238 2.40746 6.16634
13 1 1.38231 1.67759 6.10224
28 1 0.600435 1.06936 9.68613
29 1 0.380463 2.49177 10.0643
30 1 1.54051 2.88833 10.6729
38 1 2.76966 2.1392 10.5977
4 1 2.18611 3.42645 1.49308
6 1 1.37529 4.1638 0.681185
7 1 0.316389 4.7799 1.23673
5 1 2.72351 3.38718 2.80547
53 1 0.358511 5.83537 4.1516
14 1 2.48962 3.77126 6.47623
22 1 1.04066 4.12647 6.92577
63 1 0.861504 4.89394 8.19573
34 1 1.60511 4.1806 11.3394
64 1 1.84804 5.17285 10.4568
66 1 1.97643 4.87993 9.13738
39 1 0.181589 8.50532 0.712513
43 1 2.65505 8.15867 0.868042
42 1 1.41328 7.99508 1.5577
45 1 0.410238 6.0196 1.6437
40 1 0.607622 6.50916 2.98891
41 1 1.37971 7.70322 2.91852
54 1 2.3679 6.52629 5.21292
50 1 2.14686 8.46843 3.69532
52 1 1.04645 6.21113 5.25484
60 1 2.43505 7.90596 4.88676
59 1 0.319578 6.54721 6.41356
67 1 1.82448 7.31926 8.10585
71 1 0.824954 6.39916 7.65354
108 1 1.50378 8.72625 8.5489
75 1 1.63839 8.73584 10.9
76 1 2.39605 7.75422 11.4558
77 1 2.36185 6.3648 11.1126
89 1 1.68557 10.4378 0.778156
84 1 1.26087 10.293 2.26055
96 1 1.39937 10.5244 5.80047
21 1 1.92503 11.6793 5.0829
83 1 1.97272 9.86486 3.45811
109 1 0.460584 9.13924 7.92927
107 1 1.96788 9.23301 9.68906
80 1 0.964113 9.47731 11.8748
3 1 3.46182 1.23958 3.5408
16 1 4.12741 0.164967 5.50129
2 1 4.94593 1.47411 3.18049
9 1 5.79569 2.82726 7.153
24 1 5.70492 2.43076 8.65892
26 1 5.83625 0.933983 8.58776
10 1 5.33926 2.06308 6.16372
18 1 3.95423 1.52412 6.0336
25 1 3.47206 2.22466 9.36298
36 1 3.1563 1.05003 11.3995
48 1 4.33373 4.65548 0.709691
44 1 5.99016 5.22315 2.44868
46 1 4.83482 4.57961 2.03733
8 1 3.91788 4.06314 2.96916
58 1 5.89245 4.77236 5.62939
56 1 5.05263 5.94244 5.47293
51 1 3.61934 5.79543 5.77172
70 1 3.40603 5.25056 8.37877
57 1 3.29911 4.88631 6.83742
78 1 5.12797 4.29346 11.5245
68 1 4.40579 4.42649 9.42396
69 1 5.059 5.21573 10.3426
27 1 4.47806 3.0505 9.22505
47 1 5.19546 7.94796 2.43487
82 1 4.90455 8.78538 1.39948
92 1 5.0144 8.61295 3.70179
55 1 5.95341 7.18716 5.53858
73 1 4.19161 7.74413 8.55678
62 1 5.53684 7.49362 7.95057
65 1 3.19209 6.8109 8.4114
61 1 5.63671 8.06901 6.60218
72 1 5.55993 6.5066 10.3029
81 1 5.54413 7.76087 11.0694
88 1 3.49987 11.0428 2.1632
85 1 3.16455 10.4098 1.00517
91 1 5.91697 9.71594 1.04399
90 1 3.67653 9.11918 1.0001
94 1 5.51007 11.7138 5.47563
97 1 5.54044 10.2859 5.25334
87 1 3.11333 10.7168 3.43176
20 1 3.18504 11.8843 4.2963
95 1 5.89847 9.73487 4.04418
93 1 5.64775 9.60237 6.45837
100 1 5.39615 10.4731 7.59658
101 1 5.51693 9.71445 8.84227
106 1 4.93343 11.8978 7.96221
33 1 3.59975 11.9983 8.55921
98 1 3.50555 11.1841 9.68144
103 1 3.22428 11.7935 10.9441
99 1 3.27887 9.79207 9.59418
102 1 4.32834 9.07969 9.01661
114 1 8.60925 1.0636 0.341457
15 1 6.28686 1.03729 5.36838
19 1 6.14573 1.31933 3.9212
121 1 7.76238 0.614062 5.91285
128 1 8.88866 2.97665 3.70562
129 1 8.35478 0.18746 9.37563
130 1 8.26103 2.13424 11.4211
137 1 7.02759 0.504277 9.32774
134 1 6.96563 2.54662 10.8961
35 1 6.87822 2.8466 9.43909
147 1 8.12484 3.78741 2.81579
139 1 8.95702 4.71955 2.11283
141 1 6.86754 4.534 3.29409
150 1 8.14886 4.52859 5.47536
156 1 6.87198 4.6036 4.71775
151 1 8.27125 5.07366 6.80782
166 1 7.22697 4.60737 7.64401
23 1 6.11789 4.13615 6.99852
167 1 7.57641 4.01855 8.90824
165 1 8.33637 4.89564 9.7276
37 1 6.09022 3.28999 11.648
49 1 6.32647 6.66491 2.15676
140 1 7.99375 7.68454 0.383597
142 1 8.58072 7.38481 2.5869
145 1 6.96274 6.67636 0.681379
171 1 8.11027 8.45739 1.63405
144 1 7.31434 7.04926 3.2988
148 1 7.18411 7.1601 4.73754
154 1 8.35935 7.1502 5.53352
153 1 8.1698 6.55922 6.73473
162 1 8.58165 7.49694 7.74916
184 1 8.14193 8.93666 7.51019
188 1 7.99517 8.26872 11.0671
74 1 6.48352 6.90777 9.14608
160 1 7.81743 7.2395 9.89896
169 1 7.09657 9.53003 1.87342
174 1 7.97704 10.9841 3.56656
170 1 6.93637 10.1165 3.21665
177 1 8.34338 9.55504 6.12299
178 1 8.10362 11.1346 6.34415
180 1 7.89147 9.70405 8.60484
181 1 8.60636 10.9521 8.71045
185 1 8.91145 11.4014 7.40967
104 1 6.73251 9.58153 9.41521
110 1 6.49943 9.08283 10.8292
86 1 6.07477 10.1283 11.7812
115 1 10.3233 1.23323 2.44296
116 1 11.6482 0.993539 2.82226
112 1 9.70433 1.22206 1.2498
111 1 9.4857 1.66562 3.53701
126 1 10.9251 0.207048 4.75638
120 1 9.76984 1.11383 4.82804
123 1 9.07273 1.35593 5.95414
127 1 9.85358 0.871564 7.35898
189 1 11.3665 0.497339 7.24559
131 1 9.26943 1.27343 8.8753
135 1 9.92736 2.45712 9.72437
136 1 9.31994 2.91918 10.9834
105 1 11.8296 0.0101488 10.1355
119 1 10.0568 4.12402 1.1601
117 1 11.2913 4.10232 1.87838
157 1 11.3328 4.9189 4.17809
124 1 9.18021 3.70881 5.01453
146 1 11.3855 3.97031 3.30822
138 1 10.2186 5.74187 3.89366
161 1 10.2777 4.94223 8.31128
155 1 9.72347 4.77316 7.05922
133 1 11.4486 4.36918 8.8939
122 1 11.7791 3.7662 6.22739
125 1 10.4313 4.01175 6.05778
163 1 9.44619 5.61201 9.18789
113 1 9.86272 3.82653 11.855
132 1 11.2015 3.12199 9.46298
143 1 9.41135 6.11047 2.82495
168 1 11.139 7.60473 0.563201
149 1 9.69535 7.6531 5.41856
152 1 10.827 7.13612 6.19421
159 1 9.168 7.09184 8.9772
158 1 11.2905 7.02504 10.2119
164 1 10.4181 7.84684 9.49228
79 1 11.2299 6.74242 11.5198
172 1 10.0074 10.0659 4.56232
173 1 11.0291 10.7553 5.07982
175 1 9.42791 9.05859 5.30838
179 1 9.28849 10.6904 3.58403
182 1 11.2861 9.8532 8.11419
186 1 11.4828 11.032 7.29613
176 1 11.9937 10.5963 6.03074
187 1 10.2157 9.88624 10.5578
190 1 10.9942 11.1135 10.7664
183 1 10.5117 9.3033 9.2034
191 1 9.03 9.33326 11.045
ITEM: TIMESTEP
2000
ITEM: NUMBER OF ATOMS
191
ITEM: BOX BOUNDS pp pp pp
-1.1234545715960528e-01 1.2112345457159536e+01
-1.1234545715960528e-01 1.2112345457159536e+01
-1.1234545715960528e-01 1.2112345457159536e+01
ITEM: ATOMS id type x y z
4 1 1.84774 2.84226 1.36823
12 1 1.18314 0.605407 4.79728
118 1 0.277632 0.386192 3.8498
31 1 2.75231 0.878528 8.69377
32 1 1.20992 0.666865 8.67146
11 1 0.525079 0.783119 7.3235
17 1 2.53065 2.20892 6.21056
13 1 1.31602 1.2523 6.10232
28 1 0.268175 0.897859 9.72131
38 1 2.67763 2.05396 10.8378
30 1 1.44695 2.71981 10.9689
29 1 0.331523 2.33362 10.1446
7 1 0.409064 4.77566 1.34003
6 1 1.05552 3.84442 0.661536
45 1 1.09336 5.78352 2.04944
53 1 0.310121 6.0633 4.25973
14 1 2.16488 3.52544 6.5844
22 1 0.853895 3.94301 6.98233
63 1 0.630067 4.79232 8.29176
34 1 1.36876 3.99737 11.491
64 1 1.77648 5.01864 10.6361
66 1 1.93819 4.76416 9.18963
39 1 0.271546 8.72451 0.889472
43 1 2.40379 8.06759 0.69834
42 1 1.32668 8.09776 1.69654
54 1 2.37093 6.73424 5.62091
50 1 2.1383 8.68693 3.87497
52 1 0.915064 6.40517 5.64006
40 1 1.00902 6.45617 3.17145
60 1 2.5915 8.02868 5.06033
41 1 1.57724 7.69923 2.99111
108 1 1.39375 8.55732 8.56377
67 1 1.67558 7.26052 8.2134
59 1 -0.0456155 6.75212 6.59759
71 1 0.609464 6.25383 7.93067
77 1 1.96379 6.29381 11.2009
76 1 1.92399 7.65068 11.6048
75 1 1.26762 8.81668 11.0182
89 1 1.58003 10.7132 0.764928
84 1 1.46388 10.5195 2.21606
80 1 0.773245 9.68434 -0.0970944
83 1 2.24274 10.0006 3.34527
21 1 1.90475 11.596 5.02798
96 1 1.13315 10.5301 5.61191
109 1 0.226542 9.11462 8.17157
107 1 1.78235 9.20103 9.79846
3 1 5.13754 1.19872 1.88821
1 1 3.93248 1.68566 2.14943
5 1 2.91257 2.69312 2.27418
16 1 4.18731 -0.0619355 5.5229
18 1 3.87485 1.33924 5.93625
26 1 5.80594 0.839363 8.93749
24 1 5.57093 2.34925 8.62483
10 1 5.0608 2.0064 6.33944
9 1 5.80241 2.70905 7.28763
25 1 3.19034 2.08856 9.50964
36 1 2.98344 0.854232 11.6484
48 1 4.13914 5.01139 0.604796
44 1 5.53534 5.20319 2.7088
46 1 4.42907 4.72592 2.02621
8 1 3.45063 4.0108 2.64527
56 1 5.06726 5.78117 5.67231
51 1 3.55148 5.89992 5.95724
58 1 5.97572 4.4892 5.81563
70 1 3.1289 5.1609 8.42752
57 1 3.12765 4.59826 6.84701
78 1 4.88507 4.63551 11.5957
68 1 4.2271 4.59139 9.25703
69 1 4.84373 5.16878 10.3172
37 1 5.67296 3.42848 11.6628
27 1 4.32538 3.03491 9.26327
47 1 5.00462 7.81579 2.29511
82 1 4.68727 8.75699 1.31343
92 1 4.90951 8.35201 3.67931
55 1 5.89273 6.99904 5.56053
73 1 4.10637 7.75073 8.58556
62 1 5.46754 7.45647 8.04515
61 1 5.71312 8.10754 6.77665
65 1 3.06218 6.80379 8.39777
72 1 5.43151 6.42339 10.1083
81 1 5.48731 7.7473 10.9553
102 1 4.26634 9.00975 9.23909
88 1 3.50202 11.3542 1.91536
85 1 3.14084 10.6994 0.562151
91 1 5.8309 9.67429 1.06298
90 1 3.38083 9.07402 0.843504
87 1 3.36846 11.0403 3.36098
94 1 5.55729 11.7485 5.33129
20 1 3.1991 11.5589 4.6016
97 1 5.57241 10.287 5.26006
95 1 5.63523 9.61279 3.99526
93 1 5.51821 9.55698 6.51973
100 1 5.33262 10.6824 7.76122
101 1 5.44675 9.80517 8.84978
106 1 4.82496 12.0804 8.29133
33 1 3.58735 11.9299 8.99832
98 1 3.38199 11.0191 10.1073
99 1 3.19713 9.59934 10.0117
103 1 3.31695 11.6022 11.5254
86 1 6.04116 10.1129 11.9267
114 1 8.61891 1.94406 0.46936
2 1 6.32045 1.18393 2.55378
15 1 6.81766 0.101282 4.9691
19 1 6.89014 0.697875 3.70658
121 1 8.07177 0.106293 5.7497
129 1 8.15772 0.296301 9.45494
130 1 7.96105 2.51011 11.4932
137 1 6.77161 0.408594 9.96689
134 1 6.68655 2.75115 11.1077
147 1 7.87063 4.62854 2.40902
139 1 9.08034 5.29867 1.98419
141 1 6.64379 4.49775 3.24834
150 1 8.19729 3.66702 4.97887
156 1 6.92081 4.19448 4.6947
151 1 8.59718 5.26919 6.9971
166 1 7.5284 4.54127 7.71526
23 1 6.24529 4.01307 7.08067
165 1 8.61464 4.47811 9.92125
35 1 6.6204 3.10158 9.57097
167 1 7.51637 4.09841 9.13367
171 1 7.92048 8.51503 1.49569
140 1 7.59942 7.72593 0.34634
142 1 8.35409 7.53149 2.67913
145 1 6.71315 6.52886 0.634375
49 1 6.00167 6.54394 2.26457
144 1 7.10108 7.01603 3.31577
148 1 7.13082 6.98794 4.79615
154 1 8.3633 6.94673 5.42553
153 1 8.36967 6.63034 6.80097
162 1 8.46651 7.6584 7.70053
159 1 9.01286 7.03847 9.06584
188 1 7.83821 8.40654 11.1656
160 1 7.65749 7.28605 9.80384
74 1 6.39048 6.86937 9.11581
110 1 6.49681 9.04215 10.8751
169 1 6.95116 9.44291 1.8112
174 1 8.03136 10.7563 3.48516
170 1 6.87474 10.0545 3.15973
177 1 8.97086 9.67219 6.29064
178 1 8.79534 11.0508 6.41156
180 1 7.8693 9.84858 8.70486
181 1 8.24026 11.2532 8.67157
184 1 8.38478 9.00826 7.57126
104 1 6.66586 9.60553 9.52426
191 1 9.00068 9.46649 10.9965
115 1 10.806 1.52404 2.13296
112 1 9.72795 1.506 1.06556
116 1 12.1551 1.00167 2.56387
111 1 10.1871 2.0795 3.33549
126 1 11.1507 0.10564 4.52921
120 1 10.0734 1.13344 4.48704
123 1 9.00761 1.06028 5.33706
127 1 10.1794 0.601597 7.88262
189 1 11.4734 0.210279 7.43303
135 1 9.96511 2.49719 9.78014
131 1 9.41778 1.29951 9.08007
119 1 9.95836 4.70146 1.07492
117 1 11.2581 4.49674 1.73458
157 1 11.1882 5.6262 3.85165
124 1 9.69343 3.72252 4.95874
128 1 10.4705 3.36971 3.8209
146 1 11.0905 4.41758 3.16518
161 1 10.4831 5.06223 8.51054
155 1 9.94892 4.85708 7.13651
122 1 11.8405 3.7107 6.25466
125 1 10.5163 4.07624 6.13909
133 1 11.5967 4.35899 8.96715
163 1 9.39553 5.53391 9.20549
136 1 9.21745 3.42283 10.7036
113 1 9.63078 4.28079 11.992
132 1 11.33 3.03042 9.54162
143 1 9.27607 6.45323 2.75983
168 1 11.3776 7.88392 0.816305
149 1 9.74708 7.54903 5.2099
138 1 10.1537 6.67839 3.80557
152 1 10.9693 7.19317 6.10016
158 1 11.0852 7.45849 10.3654
164 1 10.365 7.86899 9.37034
79 1 10.9239 7.39198 11.8127
172 1 10.3156 10.0574 4.43246
173 1 11.2326 11.002 4.84388
179 1 9.32527 10.5222 3.54908
176 1 12.033 10.6056 5.93728
175 1 9.71972 9.05465 5.27086
182 1 11.3704 10.0083 8.11953
186 1 11.6123 10.992 7.22482
185 1 9.426 11.6072 7.72173
183 1 10.4802 9.41273 8.99287
187 1 10.0994 10.0039 10.2423
190 1 10.5771 11.2566 10.4365
105 1 11.5516 12.175 10.0289
ITEM: TIMESTEP
3000
ITEM: NUMBER OF ATOMS
191
ITEM: BOX BOUNDS pp pp pp
-2.0157587194005705e-01 1.2201575871939978e+01
-2.0157587194005705e-01 1.2201575871939978e+01
-2.0157587194005705e-01 1.2201575871939978e+01
ITEM: ATOMS id type x y z
4 1 2.09604 2.89272 1.50259
12 1 0.881678 0.639187 4.75286
118 1 -0.0838644 0.571598 3.73704
17 1 2.29144 2.01309 5.96696
31 1 2.58794 0.810423 8.96964
32 1 1.09589 0.608591 8.69047
11 1 0.429854 0.750457 7.29422
13 1 1.00335 1.15526 6.04933
28 1 0.186774 0.791843 9.90146
38 1 2.56896 2.01132 11.0215
30 1 1.29788 2.64964 11.1761
29 1 0.206987 2.15996 10.4788
36 1 2.85296 0.787836 11.7065
7 1 0.320819 4.52762 1.59399
6 1 1.22857 3.75477 0.876115
45 1 0.9728 5.75126 1.91584
63 1 0.439358 4.99993 8.87683
22 1 0.648383 3.83102 6.18276
14 1 2.09237 3.42763 5.95415
34 1 1.3391 3.9926 11.8147
64 1 1.67651 5.22083 11.2186
66 1 1.74483 5.1845 9.7955
41 1 1.10396 8.04293 2.63853
39 1 0.0351711 8.38101 0.475682
42 1 1.27876 8.21062 1.29489
43 1 2.43311 8.59344 0.492434
40 1 0.786902 6.72218 2.96388
54 1 2.34419 6.6137 5.13795
50 1 1.89929 8.90525 3.55313
52 1 0.839655 6.23705 5.39714
53 1 0.107526 6.24452 4.16074
60 1 2.38451 7.84391 4.51718
108 1 1.30828 8.41512 8.60314
67 1 1.78594 7.19222 8.08682
59 1 -0.0159816 6.53138 6.59084
71 1 0.637449 6.16348 7.85455
109 1 0.192779 9.04646 8.22951
75 1 1.30377 8.87634 11.0496
76 1 2.23105 7.92007 11.6785
77 1 2.12132 6.48532 11.6964
107 1 1.81764 9.0906 9.80973
89 1 0.612218 10.5644 0.442632
84 1 1.17207 10.7141 1.70543
83 1 2.11922 10.2261 2.77027
21 1 1.75026 11.9473 4.70018
96 1 1.09828 10.7504 5.22672
176 1 -0.14528 10.7504 5.85432
80 1 0.4148 9.51349 11.9604
3 1 5.39551 1.08482 1.80049
1 1 3.96891 0.994786 1.77298
5 1 3.28682 2.25444 2.03122
16 1 3.96375 -0.00142346 5.3057
18 1 3.61115 1.39375 5.7895
26 1 5.83703 0.742878 8.92364
24 1 5.62311 2.33251 8.54565
10 1 4.60422 2.11272 6.43251
25 1 3.1152 2.02212 9.62845
48 1 4.52246 4.79643 0.569746
44 1 5.8987 5.0111 2.60791
46 1 4.79974 4.48176 1.89909
8 1 4.0624 3.35987 2.5117
58 1 6.0014 4.83051 5.80016
56 1 5.01701 5.82617 5.62113
51 1 3.61797 5.70694 5.39495
57 1 3.03213 4.3408 5.30909
9 1 5.48327 2.86462 7.19964
78 1 5.09427 4.3535 11.6813
68 1 4.15387 4.55305 9.4889
69 1 4.98921 5.23966 10.6219
70 1 2.97939 5.33503 9.09735
37 1 5.56802 3.07745 11.5856
27 1 4.2247 2.87363 9.32431
47 1 4.63739 8.41539 2.32865
92 1 5.02374 8.75299 3.54815
55 1 5.85325 7.07513 5.55568
73 1 4.29559 7.5202 8.86153
62 1 5.68726 7.42049 8.25958
61 1 5.7881 8.00006 6.76706
65 1 3.13764 6.69352 8.49497
72 1 5.86775 6.57522 10.4899
81 1 5.77047 7.84442 11.3222
102 1 4.15346 9.0245 9.1467
88 1 3.48728 12.0721 1.67854
90 1 3.43047 9.72077 0.513241
85 1 3.32032 11.1697 0.349933
91 1 5.89361 9.69956 0.840371
82 1 4.60098 9.24697 1.22525
87 1 3.11841 11.3871 2.95109
97 1 5.50619 10.3421 5.27014
94 1 5.3282 11.7118 5.25842
20 1 3.14763 12.0159 4.20152
95 1 5.8764 9.70237 4.01381
93 1 5.47823 9.8421 6.63594
100 1 5.28498 10.5683 7.77046
101 1 5.31712 9.79125 8.93963
106 1 4.90786 11.9648 8.25025
33 1 3.43009 12.0074 8.91928
98 1 3.22388 11.2044 10.1405
99 1 3.09866 9.72487 9.82113
103 1 3.24206 11.7477 11.484
114 1 8.71424 1.9104 0.351968
2 1 6.42498 0.936633 2.6913
15 1 6.54114 0.158376 5.16816
19 1 6.4856 1.03043 4.07201
123 1 8.86211 0.609992 5.11601
129 1 8.23798 0.185419 9.60249
130 1 8.1079 2.41643 11.5958
137 1 6.84428 0.431359 9.82163
134 1 6.74549 2.6145 10.9816
147 1 8.26841 4.61373 2.5921
141 1 7.09538 4.45611 3.30818
150 1 8.25005 3.82043 5.3126
156 1 7.09204 4.30136 4.75382
151 1 8.46199 5.19322 7.21766
166 1 7.34917 4.47454 7.81058
23 1 6.12614 4.11693 7.11421
165 1 8.58644 4.45935 10.0691
35 1 6.78185 2.85807 9.58755
167 1 7.51505 3.97941 9.11379
171 1 8.11767 8.48023 1.47629
140 1 7.8884 7.61519 0.258521
142 1 8.38213 7.59461 2.58813
145 1 6.82733 6.60037 0.864894
49 1 6.35915 6.29596 2.2622
144 1 7.12985 7.18723 3.21381
148 1 7.08334 7.16836 4.67661
154 1 8.3232 7.12698 5.55383
153 1 8.31722 6.53153 6.77848
162 1 8.71055 7.49878 7.77133
188 1 8.22827 8.22488 11.4437
160 1 7.99251 7.4943 10.0916
74 1 6.64485 6.97278 9.3159
169 1 6.96587 9.50722 1.78632
170 1 6.86847 10.0268 3.103
174 1 8.05283 10.7831 3.37308
121 1 7.83062 12.0842 5.66364
177 1 8.82357 9.74767 6.3051
178 1 8.53869 11.0847 6.46736
181 1 8.4704 11.282 8.92103
180 1 7.8093 10.0002 8.81402
185 1 9.17925 11.6889 7.67879
184 1 8.42673 9.07894 7.64665
104 1 6.67492 9.60564 9.46077
86 1 6.21674 10.2035 11.9512
110 1 6.29381 9.21201 10.8827
115 1 10.6892 1.80806 2.21667
112 1 9.8985 1.84838 1.0776
116 1 11.993 1.135 2.44002
111 1 10.1145 2.05418 3.48661
126 1 11.1694 -0.0342627 4.28333
120 1 10.0503 0.951473 4.42518
127 1 10.2467 0.311551 8.08128
189 1 11.469 -0.032787 7.45738
135 1 10.1421 2.37751 10.02
131 1 9.53089 1.13207 9.10028
105 1 11.7338 -0.137682 10.3396
119 1 10.2382 4.78112 1.17694
117 1 11.4147 4.20195 1.97039
113 1 9.84385 4.22399 -0.240307
139 1 9.23515 5.52704 2.01511
146 1 11.1319 4.3391 3.47995
124 1 9.61105 3.63245 5.23209
128 1 10.2382 3.29677 4.01852
157 1 11.248 5.64017 4.02787
161 1 10.4053 4.97935 8.64151
155 1 9.73265 4.71719 7.47238
125 1 10.3172 3.77384 6.47886
122 1 11.8281 3.65267 6.59683
163 1 9.40665 5.599 9.59769
132 1 11.5411 2.90534 9.79481
133 1 11.6191 4.20726 8.99688
136 1 9.29429 3.3596 10.9151
168 1 11.3443 7.62783 0.449999
149 1 9.84927 7.68126 5.20758
138 1 10.0654 6.70032 4.02613
143 1 9.44766 6.70014 2.74819
152 1 10.9965 7.17393 6.36518
158 1 11.2117 7.09721 10.2957
164 1 10.3768 7.74089 9.37799
79 1 11.2009 7.01775 11.6145
159 1 9.0607 7.07436 9.1654
172 1 10.3487 10.1699 4.40559
173 1 11.2088 11.1168 4.97507
179 1 9.35364 10.8401 3.50151
175 1 9.65641 9.17154 5.18449
182 1 11.4227 9.74249 8.16723
186 1 11.8118 10.9047 7.29854
183 1 10.5559 9.1589 9.19622
187 1 10.1495 10.0111 10.3661
190 1 10.9665 11.2161 10.687
191 1 9.23253 9.38732 11.2995
ITEM: TIMESTEP
4000
ITEM: NUMBER OF ATOMS
191
ITEM: BOX BOUNDS pp pp pp
-1.1263038673253978e-01 1.2112630386732459e+01
-1.1263038673253978e-01 1.2112630386732459e+01
-1.1263038673253978e-01 1.2112630386732459e+01
ITEM: ATOMS id type x y z
4 1 1.95642 2.43336 1.17279
12 1 0.954192 0.534718 4.80403
17 1 2.48039 1.95114 5.97303
31 1 2.72803 1.08795 8.8051
32 1 1.29186 0.914191 8.59809
11 1 0.609972 0.837563 7.30808
13 1 1.24945 1.16824 6.05869
28 1 0.287749 0.831039 9.80668
38 1 2.42598 2.01802 10.8488
36 1 2.74162 0.811317 11.5906
29 1 0.135202 2.2163 10.2227
30 1 1.25555 2.69256 10.8431
7 1 0.427577 4.29662 1.67459
6 1 1.20533 3.55806 0.859751
45 1 1.07053 5.33182 2.24894
14 1 2.16175 3.35366 5.8531
63 1 0.459365 5.23374 8.70814
22 1 0.771573 3.6893 6.09641
34 1 1.32042 3.84821 11.758
64 1 1.6392 5.1524 11.0844
66 1 1.57945 4.95939 9.60978
70 1 2.90658 5.29851 9.13433
43 1 2.59481 8.50603 0.848398
39 1 0.240397 8.22401 0.961016
42 1 1.54441 8.072 1.55844
41 1 1.65753 7.71249 2.88602
54 1 2.44603 6.95404 5.68646
50 1 2.14163 8.75194 3.85745
52 1 1.05127 6.44622 5.58043
60 1 2.67386 8.18387 5.03491
40 1 1.32084 6.33723 3.22293
53 1 0.450513 6.06442 4.33501
108 1 1.48351 8.50466 8.74288
67 1 1.82952 7.22114 8.26069
59 1 0.10164 6.77012 6.5855
71 1 0.634785 6.40058 7.88954
77 1 1.92111 6.42368 11.6619
76 1 2.30508 7.7968 11.7648
75 1 1.41104 8.76646 11.1337
89 1 0.767474 10.4301 0.722201
84 1 0.936244 10.3519 2.07618
80 1 0.469158 9.25273 -0.0722216
21 1 1.77725 11.4317 4.87954
96 1 1.11891 10.3797 5.49789
83 1 1.96055 9.99103 2.99983
109 1 0.375869 9.06185 7.94296
107 1 1.8663 9.16106 9.86553
3 1 5.49138 1.43721 1.80643
1 1 4.15874 1.20143 1.65947
5 1 3.30263 2.43438 1.85449
16 1 4.1385 0.15903 5.0061
18 1 3.83823 1.22848 5.89495
26 1 5.68245 0.935936 8.80494
24 1 5.44275 2.53597 8.7508
10 1 4.98519 1.99251 6.42891
33 1 3.6371 -0.102114 8.88575
106 1 4.86975 -0.0392267 8.20538
25 1 3.14662 2.20733 9.66472
48 1 4.32025 5.00124 0.700709
8 1 3.83066 3.56858 2.47988
46 1 4.58327 4.76605 2.08282
44 1 5.72182 5.29545 2.62313
58 1 5.8591 4.89294 5.75429
51 1 3.44181 5.84082 5.60257
57 1 3.06583 4.46825 5.76927
9 1 5.54856 2.96233 7.22378
78 1 5.05767 4.65391 11.7812
68 1 4.04298 4.59851 9.61614
69 1 4.87126 5.30765 10.5029
27 1 4.20223 3.08672 9.21123
47 1 4.5206 8.54465 2.6435
92 1 5.25196 8.66449 3.7981
55 1 5.82148 7.30405 5.7316
56 1 4.94019 6.01918 5.64396
73 1 4.13509 7.60369 8.63872
62 1 5.57445 7.48223 8.2074
61 1 5.79614 8.19159 6.89235
65 1 3.04564 6.62266 8.65927
72 1 5.53341 6.60193 10.4556
81 1 5.58715 7.92043 11.1991
88 1 3.6811 12.029 1.826
90 1 3.50638 9.631 0.934833
85 1 3.55067 11.035 0.61304
82 1 4.80574 9.19989 1.42646
87 1 2.95265 11.1406 2.9149
97 1 5.62526 10.3472 5.45901
94 1 5.3844 11.7437 5.42863
20 1 3.13709 11.6604 4.31754
95 1 5.92529 9.85683 4.13828
93 1 5.70583 9.85708 6.74592
100 1 5.44472 10.7598 7.80503
101 1 5.3745 9.83592 8.92123
98 1 3.2594 11.2275 10.1313
99 1 3.14451 9.73695 9.95505
103 1 3.14304 11.6231 11.4863
102 1 4.04856 9.08148 9.17738
114 1 8.7053 1.83175 0.333238
2 1 6.29613 1.47819 2.88844
15 1 6.60528 0.260846 5.16014
19 1 6.40629 1.46023 4.19176
129 1 8.27138 0.205562 9.47593
130 1 7.96379 2.32434 11.423
137 1 6.81664 0.623763 9.68535
134 1 6.76144 2.91617 10.9665
147 1 7.98989 4.6235 2.49019
141 1 6.78797 4.58331 3.30052
150 1 8.06539 3.87615 5.1614
156 1 6.80249 4.29365 4.68201
151 1 8.34957 5.1586 7.03853
166 1 7.18743 4.58473 7.72782
23 1 6.13683 4.17925 6.89693
165 1 8.54847 4.45333 9.77119
35 1 6.64398 3.07887 9.65861
37 1 6.02008 3.71293 11.8673
167 1 7.3657 4.17405 9.06291
171 1 8.03782 8.58022 1.60602
140 1 7.64332 7.77556 0.413548
142 1 8.31535 7.72879 2.66071
145 1 6.55142 6.95544 0.963381
49 1 6.22773 6.59203 2.29663
144 1 7.16602 7.24285 3.31703
148 1 7.0662 7.13517 4.74424
154 1 8.48141 7.02762 5.43182
153 1 8.309 6.58936 6.76531
162 1 8.65052 7.50007 7.75122
184 1 8.4993 9.00558 7.54729
159 1 8.70275 6.83895 9.04814
188 1 8.14225 8.11762 11.1719
160 1 7.73137 7.32134 9.87252
74 1 6.33029 6.91902 9.34307
169 1 7.05558 9.76842 1.91599
91 1 6.00164 9.90303 0.922462
170 1 7.16075 10.1372 3.26543
174 1 8.37374 10.8562 3.52299
121 1 7.95815 11.9834 5.4446
123 1 8.70852 12.0812 4.22538
177 1 8.75815 9.62289 6.15127
178 1 8.63839 11.0443 6.26671
180 1 7.95727 9.68501 8.77868
181 1 8.44703 11.1649 8.65989
104 1 6.71149 9.47071 9.52287
110 1 6.25591 9.16184 10.8219
86 1 6.3366 10.1333 11.8174
115 1 10.7226 1.79263 2.12669
112 1 9.80978 1.68773 1.07559
116 1 12.0401 1.42506 2.53507
111 1 10.0547 1.95491 3.44449
120 1 9.8025 0.654146 3.93405
126 1 10.9769 -0.0432533 4.20775
118 1 12.0954 0.700089 3.77365
127 1 10.0983 0.474392 7.92703
189 1 11.4698 0.0681607 7.45034
135 1 10.1338 2.21015 9.84388
131 1 9.44918 1.03 9.19054
132 1 11.325 2.9423 9.6121
119 1 10.1253 4.6893 1.10277
117 1 11.251 4.38963 1.85549
139 1 9.15506 5.26784 2.03705
146 1 11.0725 4.32495 3.28073
124 1 9.50317 3.72888 5.1397
128 1 10.2063 3.29626 3.85852
157 1 11.3973 5.56151 3.82942
161 1 10.3215 4.92007 8.33009
155 1 9.62243 4.68422 7.2052
125 1 10.3205 4.09155 6.20091
133 1 11.5371 4.39047 8.78979
122 1 11.6111 3.63144 6.25356
163 1 9.38866 5.43754 9.26079
113 1 9.79112 4.03304 12.036
136 1 9.13494 3.2465 10.5846
168 1 11.4247 7.3463 0.739569
143 1 9.27942 6.56281 2.72689
149 1 9.86666 7.37582 5.23301
138 1 10.3252 6.60747 3.82201
175 1 9.74701 8.918 5.30686
152 1 10.9884 7.05467 6.19423
158 1 11.1004 7.0826 10.5606
164 1 11.1022 8.02313 9.55674
79 1 10.934 6.85991 11.8351
172 1 10.3756 9.66375 4.22696
173 1 11.1618 10.819 4.65009
179 1 9.44624 10.1178 3.22364
176 1 11.9922 10.5329 5.7976
182 1 11.5645 9.9375 8.18272
186 1 11.5348 10.877 7.07562
185 1 9.07348 11.6853 7.43571
187 1 10.3323 9.9557 10.5017
190 1 10.7712 11.3126 10.6335
191 1 9.11335 9.14478 10.958
183 1 10.9042 9.42474 9.31003
105 1 11.8383 11.9988 10.3027
ITEM: TIMESTEP
5000
ITEM: NUMBER OF ATOMS
191
ITEM: BOX BOUNDS pp pp pp
-4.0519392200584183e-02 1.2040519392200501e+01
-4.0519392200584183e-02 1.2040519392200501e+01
-4.0519392200584183e-02 1.2040519392200501e+01
ITEM: ATOMS id type x y z
4 1 2.17805 2.63662 1.47395
12 1 1.16454 0.558085 4.75034
118 1 0.126543 0.645242 3.77531
13 1 1.28673 1.44196 5.83574
17 1 2.38091 2.24808 5.67729
31 1 2.73344 0.961585 8.73843
32 1 1.4005 0.802945 8.26695
11 1 0.600288 0.985962 7.06419
28 1 0.556455 0.987674 9.43421
38 1 2.50651 1.88627 10.8188
30 1 1.39845 2.75809 10.7987
29 1 0.428556 2.39888 9.77419
36 1 2.42021 0.680174 11.5488
7 1 0.419859 4.37836 1.67646
6 1 1.269 3.48508 0.912706
45 1 1.26221 5.41505 2.2126
63 1 0.610719 5.07176 8.74959
22 1 0.665238 3.7982 6.3282
14 1 2.06979 3.48552 6.14813
34 1 1.38624 3.8425 11.6364
64 1 1.49243 5.09934 11.1557
66 1 1.65395 5.07565 9.70523
70 1 2.92177 5.4493 9.20009
43 1 2.68232 8.29938 0.780087
39 1 0.285804 7.95403 0.807378
42 1 1.61868 7.93845 1.59363
41 1 1.77673 7.61042 2.88988
54 1 2.48844 6.9875 5.47138
50 1 2.16658 8.71447 3.69392
52 1 1.11456 6.53022 5.47894
60 1 2.63148 8.3361 5.05545
40 1 1.37675 6.34197 3.18335
53 1 0.548425 6.07886 4.25241
108 1 1.38859 8.60139 8.67199
67 1 1.67964 7.27665 8.41539
59 1 0.258377 6.52623 6.59694
71 1 0.548164 6.35507 7.95078
65 1 3.0074 6.80353 8.76182
77 1 1.97171 6.47182 11.4688
76 1 2.25778 7.77265 11.5648
75 1 1.38522 8.75765 11.023
89 1 0.61296 10.2863 0.793675
84 1 1.30996 10.2951 1.9595
83 1 2.21963 10.0234 2.95226
21 1 1.89554 11.4233 4.92257
96 1 1.26238 10.3387 5.58579
109 1 0.64172 9.28829 7.68043
107 1 1.75223 9.34529 9.79286
105 1 0.0290107 12.0125 10.0054
80 1 0.476612 9.12932 12.0814
3 1 5.47044 1.16145 2.08029
1 1 4.07513 0.95913 1.92421
5 1 3.35504 2.25547 2.05824
16 1 4.03318 0.441113 5.17201
18 1 3.68385 1.70753 5.69074
10 1 4.57914 2.42946 6.4118
24 1 5.33965 2.83206 8.67596
25 1 3.24077 2.12156 9.53329
48 1 4.31213 5.02171 0.73137
44 1 5.64384 5.47344 2.63179
46 1 4.49439 4.5739 1.9957
8 1 4.02217 3.36597 2.67098
57 1 2.90632 4.64604 6.21459
58 1 5.91618 4.78344 5.54432
9 1 5.48602 3.02682 7.32827
78 1 4.91951 4.56892 11.6865
68 1 4.02289 4.77851 9.50803
69 1 4.79415 5.30892 10.4991
27 1 4.07432 3.12726 9.25556
37 1 5.84497 3.59265 11.6859
47 1 4.51723 8.39999 2.66292
92 1 5.06826 8.80431 3.82854
55 1 5.72227 7.2623 5.55502
56 1 5.0884 5.96288 5.50095
51 1 3.49586 5.91673 5.60879
73 1 4.12872 7.64192 8.84359
62 1 5.45474 7.49039 8.17545
61 1 5.64812 8.06466 6.83823
72 1 5.59114 6.46482 10.3531
81 1 5.68561 7.45621 11.3927
102 1 4.24297 8.98687 9.39135
88 1 3.67047 11.6263 1.74868
90 1 3.64795 9.47282 0.734668
85 1 3.52507 10.9222 0.509593
82 1 4.75777 9.3312 1.58788
91 1 5.93952 9.82665 1.17512
20 1 3.2088 11.6557 4.39684
97 1 5.506 10.42 5.37576
94 1 5.32332 11.8457 5.3449
87 1 3.22851 11.056 3.0571
93 1 5.47989 9.67684 6.63259
100 1 5.30784 10.4129 7.81224
106 1 5.06792 11.6442 8.21414
101 1 5.41184 9.58472 8.87688
33 1 3.64039 11.9257 8.83572
98 1 3.45589 11.0309 10.0495
103 1 3.28667 11.6008 11.426
99 1 3.19161 9.73636 9.79681
114 1 8.51792 1.83929 0.443899
15 1 6.56839 0.502604 5.37482
19 1 6.42666 1.55023 4.38777
2 1 6.16935 1.55867 3.06659
26 1 6.12973 0.158602 8.87738
129 1 8.37794 0.467503 9.74553
130 1 8.06547 2.67121 11.4548
137 1 6.95952 0.710201 9.77046
134 1 6.77103 2.92539 10.8435
147 1 7.86371 4.8183 2.43596
141 1 6.7027 4.83666 3.24417
150 1 7.99279 3.86323 4.92491
156 1 6.77099 4.40856 4.60829
151 1 8.281 5.29931 6.98591
166 1 7.24664 4.52291 7.50273
23 1 6.14884 4.07626 6.76527
165 1 8.49378 4.59228 9.89112
35 1 6.44923 3.11857 9.51194
167 1 7.40601 4.1481 8.95594
171 1 8.12838 8.58973 1.63547
140 1 7.67383 8.10786 0.375821
142 1 8.41763 7.65423 2.59299
145 1 6.53352 7.21462 0.569742
49 1 6.22459 6.67094 2.17066
144 1 7.13227 7.29388 3.23249
148 1 7.01661 7.23388 4.77131
154 1 8.25733 7.16595 5.5115
153 1 8.04223 6.73017 6.83877
162 1 8.64405 7.52493 7.78774
188 1 8.28354 8.17504 11.2086
160 1 7.79223 7.28077 9.96751
74 1 6.5289 6.98385 9.38619
159 1 8.81025 6.83381 9.07886
169 1 7.13739 9.58368 1.9622
170 1 7.0653 10.289 3.39878
174 1 8.241 10.8946 3.53564
95 1 6.02121 9.80855 4.21626
121 1 7.80349 11.9347 5.60252
123 1 8.47506 12.0157 4.32373
181 1 8.39951 11.2329 8.86616
178 1 8.47357 11.116 6.52946
180 1 7.86159 9.85693 8.76479
177 1 8.73479 9.66879 6.48327
184 1 8.49982 8.9955 7.74162
104 1 6.61713 9.45829 9.55971
86 1 6.28248 10.0149 11.8935
110 1 6.17981 9.11118 10.8689
115 1 10.4301 1.71767 2.08806
112 1 9.72334 1.36962 0.916048
116 1 11.8264 1.33051 2.63075
111 1 9.84949 1.94176 3.39126
120 1 9.70018 0.606411 4.17461
127 1 10.1097 0.643511 7.84985
189 1 11.3894 0.271013 7.22539
135 1 10.0696 2.60863 9.9531
131 1 9.78821 1.35724 9.18836
119 1 9.99351 4.46026 1.39053
117 1 11.1074 4.25298 2.06693
139 1 9.0995 5.38153 2.00956
146 1 10.9106 4.25795 3.44308
124 1 9.41439 3.53588 5.11104
128 1 10.0709 3.18734 3.97082
157 1 11.257 5.59081 4.02994
161 1 10.1993 4.86142 8.3599
155 1 9.65888 4.72038 7.10003
125 1 10.2401 3.95761 6.09031
133 1 11.492 4.41304 8.89433
122 1 11.4914 3.39811 6.15213
163 1 9.32585 5.54539 9.22888
136 1 9.21124 3.5822 10.8173
132 1 11.4013 3.19741 9.56574
113 1 9.96181 4.24035 11.9925
143 1 9.39802 6.56345 2.79949
168 1 11.4228 7.07162 0.640515
149 1 9.78516 7.47934 5.18853
138 1 10.2159 6.58076 3.91815
175 1 9.66089 9.01963 5.43812
152 1 10.9041 7.01237 6.23755
158 1 11.2418 6.8972 10.425
164 1 11.1787 7.804 9.4313
79 1 11.1829 6.33207 11.6159
172 1 10.1599 9.75583 4.32871
173 1 11.2067 10.7827 4.66795
179 1 9.34685 10.1046 3.26927
176 1 11.9322 10.463 5.76214
126 1 11.0121 12.0384 4.21423
182 1 11.5163 9.89749 8.03275
186 1 11.4441 10.9367 7.07299
185 1 9.03824 11.7348 7.63722
187 1 10.4758 9.94071 10.2773
190 1 11.2134 11.1257 10.6404
183 1 11.0309 9.18824 9.20035
191 1 9.4091 9.07263 10.8361
ITEM: TIMESTEP
6000
ITEM: NUMBER OF ATOMS
191
ITEM: BOX BOUNDS pp pp pp
-9.3882096145714938e-02 1.2093882096145634e+01
-9.3882096145714938e-02 1.2093882096145634e+01
-9.3882096145714938e-02 1.2093882096145634e+01
ITEM: ATOMS id type x y z
4 1 1.98703 2.58216 1.42029
12 1 0.99823 0.712475 4.83847
118 1 -0.121062 0.793114 3.9317
31 1 2.60338 0.978581 8.78251
32 1 1.2842 0.834719 8.55382
11 1 0.535603 0.910447 7.25833
13 1 1.23119 1.38513 6.06393
17 1 2.37345 2.19252 5.87556
28 1 0.355956 0.942316 9.62879
38 1 2.56287 2.10735 10.8116
30 1 1.33368 2.68113 10.8696
29 1 0.280247 2.29773 10.0562
36 1 2.65397 0.833649 11.4188
7 1 0.575428 4.50693 1.72129
6 1 1.16562 3.58441 0.851486
45 1 1.42471 5.42544 2.38549
14 1 2.04816 3.63491 6.04747
22 1 0.610694 3.79344 5.99296