ITEM: TIMESTEP
1000
ITEM: NUMBER OF ATOMS
191
ITEM: BOX BOUNDS pp pp pp
0.0000000000000000e+00 1.2000000000000000e+01
0.0000000000000000e+00 1.2000000000000000e+01
0.0000000000000000e+00 1.2000000000000000e+01
ITEM: ATOMS id type x y z
12 1 1.20509 0.848646 4.8824
1 1 2.45416 2.21262 3.44646
118 1 0.0568909 0.931156 4.21542
31 1 2.7963 1.20012 8.59879
32 1 1.33362 1.11411 8.47168
11 1 0.524598 1.20419 7.34151
17 1 2.71238 2.40746 6.16634
13 1 1.38231 1.67759 6.10224
28 1 0.600435 1.06936 9.68613
29 1 0.380463 2.49177 10.0643
30 1 1.54051 2.88833 10.6729
38 1 2.76966 2.1392 10.5977
4 1 2.18611 3.42645 1.49308
6 1 1.37529 4.1638 0.681185
7 1 0.316389 4.7799 1.23673
5 1 2.72351 3.38718 2.80547
53 1 0.358511 5.83537 4.1516
14 1 2.48962 3.77126 6.47623
22 1 1.04066 4.12647 6.92577
63 1 0.861504 4.89394 8.19573
34 1 1.60511 4.1806 11.3394
64 1 1.84804 5.17285 10.4568
66 1 1.97643 4.87993 9.13738
39 1 0.181589 8.50532 0.712513
43 1 2.65505 8.15867 0.868042
42 1 1.41328 7.99508 1.5577
45 1 0.410238 6.0196 1.6437
40 1 0.607622 6.50916 2.98891
41 1 1.37971 7.70322 2.91852
54 1 2.3679 6.52629 5.21292
50 1 2.14686 8.46843 3.69532
52 1 1.04645 6.21113 5.25484
60 1 2.43505 7.90596 4.88676
59 1 0.319578 6.54721 6.41356
67 1 1.82448 7.31926 8.10585
71 1 0.824954 6.39916 7.65354
108 1 1.50378 8.72625 8.5489
75 1 1.63839 8.73584 10.9
76 1 2.39605 7.75422 11.4558
77 1 2.36185 6.3648 11.1126
89 1 1.68557 10.4378 0.778156
84 1 1.26087 10.293 2.26055
96 1 1.39937 10.5244 5.80047
21 1 1.92503 11.6793 5.0829
83 1 1.97272 9.86486 3.45811
109 1 0.460584 9.13924 7.92927
107 1 1.96788 9.23301 9.68906
80 1 0.964113 9.47731 11.8748
3 1 3.46182 1.23958 3.5408
16 1 4.12741 0.164967 5.50129
2 1 4.94593 1.47411 3.18049
9 1 5.79569 2.82726 7.153
24 1 5.70492 2.43076 8.65892
26 1 5.83625 0.933983 8.58776
10 1 5.33926 2.06308 6.16372
18 1 3.95423 1.52412 6.0336
25 1 3.47206 2.22466 9.36298
36 1 3.1563 1.05003 11.3995
48 1 4.33373 4.65548 0.709691
44 1 5.99016 5.22315 2.44868
46 1 4.83482 4.57961 2.03733
8 1 3.91788 4.06314 2.96916
58 1 5.89245 4.77236 5.62939
56 1 5.05263 5.94244 5.47293
51 1 3.61934 5.79543 5.77172
70 1 3.40603 5.25056 8.37877
57 1 3.29911 4.88631 6.83742
78 1 5.12797 4.29346 11.5245
68 1 4.40579 4.42649 9.42396
69 1 5.059 5.21573 10.3426
27 1 4.47806 3.0505 9.22505
47 1 5.19546 7.94796 2.43487
82 1 4.90455 8.78538 1.39948
92 1 5.0144 8.61295 3.70179
55 1 5.95341 7.18716 5.53858
73 1 4.19161 7.74413 8.55678
62 1 5.53684 7.49362 7.95057
65 1 3.19209 6.8109 8.4114
61 1 5.63671 8.06901 6.60218
72 1 5.55993 6.5066 10.3029
81 1 5.54413 7.76087 11.0694
88 1 3.49987 11.0428 2.1632
85 1 3.16455 10.4098 1.00517
91 1 5.91697 9.71594 1.04399
90 1 3.67653 9.11918 1.0001
94 1 5.51007 11.7138 5.47563
97 1 5.54044 10.2859 5.25334
87 1 3.11333 10.7168 3.43176
20 1 3.18504 11.8843 4.2963
95 1 5.89847 9.73487 4.04418
93 1 5.64775 9.60237 6.45837
100 1 5.39615 10.4731 7.59658
101 1 5.51693 9.71445 8.84227
106 1 4.93343 11.8978 7.96221
33 1 3.59975 11.9983 8.55921
98 1 3.50555 11.1841 9.68144
103 1 3.22428 11.7935 10.9441
99 1 3.27887 9.79207 9.59418
102 1 4.32834 9.07969 9.01661
114 1 8.60925 1.0636 0.341457
15 1 6.28686 1.03729 5.36838
19 1 6.14573 1.31933 3.9212
121 1 7.76238 0.614062 5.91285
128 1 8.88866 2.97665 3.70562
129 1 8.35478 0.18746 9.37563
130 1 8.26103 2.13424 11.4211
137 1 7.02759 0.504277 9.32774
134 1 6.96563 2.54662 10.8961
35 1 6.87822 2.8466 9.43909
147 1 8.12484 3.78741 2.81579
139 1 8.95702 4.71955 2.11283
141 1 6.86754 4.534 3.29409
150 1 8.14886 4.52859 5.47536
156 1 6.87198 4.6036 4.71775
151 1 8.27125 5.07366 6.80782
166 1 7.22697 4.60737 7.64401
23 1 6.11789 4.13615 6.99852
167 1 7.57641 4.01855 8.90824
165 1 8.33637 4.89564 9.7276
37 1 6.09022 3.28999 11.648
49 1 6.32647 6.66491 2.15676
140 1 7.99375 7.68454 0.383597
142 1 8.58072 7.38481 2.5869
145 1 6.96274 6.67636 0.681379
171 1 8.11027 8.45739 1.63405
144 1 7.31434 7.04926 3.2988
148 1 7.18411 7.1601 4.73754
154 1 8.35935 7.1502 5.53352
153 1 8.1698 6.55922 6.73473
162 1 8.58165 7.49694 7.74916
184 1 8.14193 8.93666 7.51019
188 1 7.99517 8.26872 11.0671
74 1 6.48352 6.90777 9.14608
160 1 7.81743 7.2395 9.89896
169 1 7.09657 9.53003 1.87342
174 1 7.97704 10.9841 3.56656
170 1 6.93637 10.1165 3.21665
177 1 8.34338 9.55504 6.12299
178 1 8.10362 11.1346 6.34415
180 1 7.89147 9.70405 8.60484
181 1 8.60636 10.9521 8.71045
185 1 8.91145 11.4014 7.40967
104 1 6.73251 9.58153 9.41521
110 1 6.49943 9.08283 10.8292
86 1 6.07477 10.1283 11.7812
115 1 10.3233 1.23323 2.44296
116 1 11.6482 0.993539 2.82226
112 1 9.70433 1.22206 1.2498
111 1 9.4857 1.66562 3.53701
126 1 10.9251 0.207048 4.75638
120 1 9.76984 1.11383 4.82804
123 1 9.07273 1.35593 5.95414
127 1 9.85358 0.871564 7.35898
189 1 11.3665 0.497339 7.24559
131 1 9.26943 1.27343 8.8753
135 1 9.92736 2.45712 9.72437
136 1 9.31994 2.91918 10.9834
105 1 11.8296 0.0101488 10.1355
119 1 10.0568 4.12402 1.1601
117 1 11.2913 4.10232 1.87838
157 1 11.3328 4.9189 4.17809
124 1 9.18021 3.70881 5.01453
146 1 11.3855 3.97031 3.30822
138 1 10.2186 5.74187 3.89366
161 1 10.2777 4.94223 8.31128
155 1 9.72347 4.77316 7.05922
133 1 11.4486 4.36918 8.8939
122 1 11.7791 3.7662 6.22739
125 1 10.4313 4.01175 6.05778
163 1 9.44619 5.61201 9.18789
113 1 9.86272 3.82653 11.855
132 1 11.2015 3.12199 9.46298
143 1 9.41135 6.11047 2.82495
168 1 11.139 7.60473 0.563201
149 1 9.69535 7.6531 5.41856
152 1 10.827 7.13612 6.19421
159 1 9.168 7.09184 8.9772
158 1 11.2905 7.02504 10.2119
164 1 10.4181 7.84684 9.49228
79 1 11.2299 6.74242 11.5198
172 1 10.0074 10.0659 4.56232
173 1 11.0291 10.7553 5.07982
175 1 9.42791 9.05859 5.30838
179 1 9.28849 10.6904 3.58403
182 1 11.2861 9.8532 8.11419
186 1 11.4828 11.032 7.29613
176 1 11.9937 10.5963 6.03074
187 1 10.2157 9.88624 10.5578
190 1 10.9942 11.1135 10.7664
183 1 10.5117 9.3033 9.2034
191 1 9.03 9.33326 11.045
ITEM: TIMESTEP
2000
ITEM: NUMBER OF ATOMS
191
ITEM: BOX BOUNDS pp pp pp
-1.1208147438724490e-01 1.2112081474387233e+01
-1.1208147438724490e-01 1.2112081474387233e+01
-1.1208147438724490e-01 1.2112081474387233e+01
ITEM: ATOMS id type x y z
4 1 1.79335 2.7702 1.37479
12 1 1.2819 0.621288 4.86641
118 1 0.165322 0.373757 3.96458
31 1 2.7307 0.941769 8.7374
32 1 1.24851 0.714589 8.5674
11 1 0.588244 0.88078 7.27978
17 1 2.59508 2.13018 6.12946
13 1 1.28162 1.40683 6.12273
28 1 0.342323 0.941854 9.71443
38 1 2.6793 2.04512 10.7736
30 1 1.41735 2.65264 10.9111
29 1 0.319822 2.3196 10.1715
7 1 0.579494 4.79766 1.56194
6 1 1.07427 3.80019 0.734527
45 1 1.16781 5.73418 2.18324
14 1 2.23547 3.56052 6.63362
22 1 0.878481 3.93483 7.04667
63 1 0.714431 4.63344 8.37676
34 1 1.44534 3.97542 11.6302
64 1 1.92475 5.11683 10.7534
66 1 1.92447 4.78024 9.36428
39 1 0.0695337 8.72909 0.998249
43 1 2.27456 8.05783 0.822043
42 1 1.16744 8.13574 1.68149
54 1 2.41346 6.56471 5.53378
50 1 2.16643 8.76041 3.81111
52 1 0.9772 6.23857 5.57953
40 1 1.08622 6.50317 3.2723
60 1 2.6643 7.84388 4.90168
53 1 0.377556 6.24875 4.34225
41 1 1.38743 7.86025 3.02506
108 1 1.39648 8.52208 8.64664
67 1 1.83581 7.13063 8.40196
71 1 0.685975 6.28479 8.06529
59 1 0.200598 6.57445 6.83883
77 1 2.13073 6.45825 11.3114
76 1 1.86695 7.69248 11.7304
75 1 1.22847 8.92 11.0748
89 1 1.60097 10.7374 0.866653
84 1 1.22664 10.6968 2.24756
80 1 0.637271 9.66914 -0.0148446
83 1 2.09897 10.1509 3.31089
21 1 1.90692 11.4914 5.24975
96 1 1.09819 10.4507 5.62792
109 1 0.280678 9.12032 8.13647
107 1 1.88778 9.16643 9.76728
3 1 4.65241 0.426844 2.01571
1 1 3.77983 1.37144 1.63095
2 1 5.88928 0.777002 2.47126
5 1 3.06594 2.44686 2.08334
16 1 4.13594 0.0335274 5.46755
18 1 3.90598 1.43668 5.80698
26 1 5.92377 0.80636 8.75086
24 1 5.58563 2.35765 8.61046
10 1 5.04138 2.07884 6.2162
9 1 5.7058 2.81105 7.18358
25 1 3.18192 2.14222 9.45082
36 1 3.02648 0.940344 11.5795
48 1 4.14244 4.78764 0.607217
44 1 5.56671 5.23783 2.72717
46 1 4.58625 4.49631 1.97114
8 1 3.90093 3.45378 2.5528
56 1 5.01532 5.65379 5.58915
58 1 5.91612 4.54487 5.73172
51 1 3.49628 5.68322 5.89441
70 1 3.16959 5.24561 8.57397
57 1 3.18603 4.62106 7.03776
78 1 4.8909 4.59693 11.716
68 1 4.22094 4.43079 9.35325
69 1 4.7691 5.24815 10.378
37 1 5.75284 3.53646 11.6042
27 1 4.25018 2.99323 9.11008
47 1 5.00846 7.83559 2.32851
82 1 4.66677 8.71997 1.32897
49 1 5.82714 6.63044 2.24658
90 1 3.33689 9.01453 0.903276
92 1 5.03608 8.42794 3.67636
55 1 5.7974 7.08244 5.47512
73 1 4.11135 7.69678 8.65421
62 1 5.46477 7.47625 8.04014
61 1 5.64911 8.02252 6.73267
65 1 3.13817 6.73122 8.56651
72 1 5.42044 6.49484 10.1142
81 1 5.43169 7.71807 11.0061
102 1 4.2519 9.02451 9.22248
88 1 3.78837 11.2643 2.20334
85 1 3.0998 10.7399 0.676575
91 1 5.74325 9.60837 0.9979
97 1 5.65332 10.2878 5.27708
94 1 5.53974 11.7508 5.39342
20 1 3.20072 11.5482 4.58172
87 1 3.27819 10.8532 3.43242
95 1 5.72819 9.57396 4.08533
93 1 5.3873 9.64485 6.51631
100 1 5.3287 10.7061 7.76363
101 1 5.40412 9.90434 8.85512
33 1 3.62666 12.0861 8.95128
106 1 4.86791 12.1583 8.19005
98 1 3.39128 11.0998 10.1045
103 1 3.21658 11.5759 11.4353
99 1 3.24328 9.64297 9.94262
86 1 5.91898 10.0476 11.8565
114 1 8.79189 1.86552 0.428369
15 1 6.70384 0.237733 4.93827
19 1 6.76818 0.704082 3.39939
121 1 8.05053 0.16967 5.55744
129 1 8.31591 0.48062 9.51877
130 1 8.18497 2.57177 11.4797
137 1 6.86823 0.550201 9.79043
134 1 6.80181 2.77398 11.0259
147 1 7.77471 4.69856 2.35574
139 1 8.9902 5.38465 2.01792
141 1 6.66969 4.58791 3.32634
150 1 8.171 3.76163 4.8361
156 1 6.93044 4.4449 4.76641
151 1 8.57591 5.30103 7.00055
166 1 7.53186 4.53389 7.67583
23 1 6.24667 4.10809 7.10877
167 1 7.64647 4.03883 9.01058
165 1 8.70274 4.41251 9.81296
35 1 6.6602 3.0271 9.51544
171 1 7.93591 8.43886 1.41035
140 1 7.58857 7.62453 0.197424
142 1 8.22383 7.59594 2.47261
145 1 6.60245 6.62614 0.67433
144 1 7.01932 7.1115 3.30407
148 1 6.99684 6.95253 4.79804
154 1 8.23682 7.04445 5.36414
153 1 8.4072 6.65125 6.65366
162 1 8.48714 7.54909 7.74853
74 1 6.31684 6.76149 9.02038
188 1 7.80615 8.1862 11.0722
160 1 7.54666 7.22487 9.7862
110 1 6.45602 9.01579 10.868
169 1 7.05855 9.41098 1.78463
170 1 6.89386 9.95865 3.17221
174 1 8.00944 10.8471 3.4814
177 1 8.85835 9.74004 6.23438
178 1 8.67284 11.1406 6.27758
180 1 7.88388 9.87096 8.69294
181 1 8.59796 11.2442 8.70537
184 1 8.39916 9.04014 7.57306
104 1 6.66461 9.64475 9.44176
191 1 8.93489 9.39988 10.8227
115 1 10.8286 1.41356 2.1755
112 1 9.84599 1.30245 1.10568
116 1 12.1496 0.889797 2.73645
111 1 10.2176 2.1661 3.30474
126 1 11.1579 0.0496694 4.62292
120 1 10.2054 1.12549 4.58545
123 1 9.0524 1.16019 5.34758
127 1 10.1904 0.680431 7.89671
189 1 11.5624 0.252438 7.39548
131 1 9.4388 1.35598 9.01069
135 1 10.1419 2.48629 9.8363
119 1 9.93999 4.76827 1.06175
117 1 11.2053 4.64636 1.7059
128 1 10.4885 3.4566 3.85198
124 1 9.69988 3.73552 5.02218
146 1 11.0614 4.49791 3.2318
157 1 11.15 5.77279 3.95533
161 1 10.5105 5.10677 8.50087
155 1 9.89649 4.75816 7.12487
125 1 10.5706 4.08372 6.06906
122 1 11.9131 3.86806 6.31061
133 1 11.6288 4.4303 9.02673
163 1 9.39833 5.49727 9.24647
136 1 9.25069 3.3661 10.7832
113 1 9.78746 4.27214 12.003
132 1 11.4323 3.06129 9.64232
143 1 9.22429 6.59699 2.76893
168 1 11.0683 7.97566 0.887029
149 1 9.40938 7.62203 4.81891
138 1 10.1052 6.77447 3.83264
152 1 11.3831 7.59924 6.74546
158 1 11.2214 7.40066 10.3901
164 1 10.3531 7.93086 9.34291
79 1 10.7586 7.45014 11.7832
159 1 9.05292 7.08521 9.08302
172 1 10.1685 10.1236 4.26409
173 1 11.0763 10.9448 4.83043
179 1 9.37661 10.8448 3.43822
176 1 11.9017 10.5812 5.82758
175 1 9.50555 9.09281 5.09131
182 1 11.3976 9.9608 8.13644
186 1 11.461 10.9734 7.2883
185 1 9.36318 11.6544 7.52225
187 1 10.0687 9.91472 10.2366
190 1 10.6528 11.1367 10.477
105 1 11.7049 12.0524 10.2604
183 1 10.5531 9.30012 9.12811
ITEM: TIMESTEP
3000
ITEM: NUMBER OF ATOMS
191
ITEM: BOX BOUNDS pp pp pp
-2.2571838396796964e-01 1.2225718383968001e+01
-2.2571838396796964e-01 1.2225718383968001e+01
-2.2571838396796964e-01 1.2225718383968001e+01
ITEM: ATOMS id type x y z
4 1 1.53702 2.75894 1.36602
5 1 2.83859 2.57762 1.48245
12 1 1.02539 0.335233 5.15236
118 1 -0.0225142 0.574545 4.20419
17 1 2.45728 1.98425 6.41787
32 1 1.38704 0.591813 8.90415
11 1 0.702412 0.490453 7.62516
13 1 1.31856 1.14267 6.4007
28 1 0.257093 0.45217 9.92518
29 1 0.224322 1.84359 10.4429
30 1 1.32042 2.47948 11.1028
38 1 2.57206 1.79122 11.0411
7 1 0.129072 4.80101 1.28803
6 1 0.801269 3.74005 0.638325
45 1 0.962966 5.46427 2.14848
14 1 2.18651 3.33351 6.51988
22 1 0.748352 3.63376 6.59122
63 1 0.554278 4.79779 8.77228
34 1 1.38436 3.91461 11.661
64 1 1.9314 4.76019 10.6727
66 1 1.86968 4.45305 9.29463
39 1 0.309341 7.97307 0.521664
42 1 1.55168 7.71238 1.26169
43 1 2.6809 8.01427 0.514603
41 1 1.44557 7.67087 2.66037
54 1 2.55623 6.61549 5.38204
50 1 2.2134 8.54593 3.60732
52 1 1.09942 6.30693 5.52766
40 1 1.03734 6.38304 3.19738
53 1 0.236077 6.4013 4.39871
60 1 2.96862 7.86974 4.66446
59 1 0.398456 6.47837 6.72744
67 1 1.85453 6.98865 8.61415
71 1 0.792606 6.01409 7.98096
108 1 1.44151 8.34716 9.03229
109 1 0.436173 8.94106 8.31014
77 1 2.05475 6.26449 10.9971
76 1 2.22166 7.62007 11.6025
75 1 1.32725 8.78342 11.193
89 1 0.602473 10.3713 0.772762
84 1 1.13161 10.2188 2.10235
80 1 0.408788 9.23741 -0.165535
96 1 0.901164 10.4769 5.50507
21 1 1.70309 11.5033 5.08647
83 1 2.1419 9.83271 3.09376
107 1 2.0011 9.0997 9.9758
3 1 4.10796 0.393703 1.81001
1 1 3.37804 1.26793 0.951244
2 1 5.18464 0.703924 2.8032
16 1 4.07405 -0.0697605 5.38731
10 1 4.99465 2.10642 6.42762
24 1 5.68553 2.19703 8.82039
9 1 5.78856 2.67398 7.4869
18 1 3.76145 1.27307 6.0496
26 1 6.0007 0.781652 8.9367
31 1 2.76683 0.756413 9.11181
25 1 3.23892 1.93224 9.73188
36 1 2.94853 0.767998 12.0059
27 1 4.37 2.68188 9.47136
48 1 4.32586 4.9065 0.395734
44 1 5.53929 5.2326 2.61748
46 1 4.59108 4.52845 1.80448
8 1 3.65494 3.42319 2.2941
56 1 4.91791 5.57763 5.76544
58 1 5.95779 4.63562 5.93177
51 1 3.48707 5.57567 5.91484
70 1 3.25728 4.74086 8.39807
57 1 3.07236 4.54134 6.84593
78 1 4.95194 4.35254 11.7471
68 1 4.39504 4.19848 9.27714
69 1 4.63307 4.80763 10.448
37 1 5.71883 3.2255 11.9323
47 1 4.98346 8.04163 2.30471
82 1 4.78349 8.93553 1.15658
49 1 5.49318 6.76267 2.76926
92 1 4.8959 9.03854 3.33536
55 1 5.83822 6.98251 5.58948
65 1 3.19224 6.52468 8.5097
62 1 5.58727 7.41696 8.06754
61 1 5.71224 7.97095 6.77206
73 1 4.22636 7.59415 8.64523
72 1 5.48957 6.05652 10.2823
81 1 5.18398 6.89621 11.5363
102 1 4.19912 9.08912 9.20878
88 1 3.42447 11.6073 2.04527
85 1 3.10039 10.8034 0.802121
91 1 5.75748 10.0005 0.612255
90 1 3.53366 9.23368 0.543793
97 1 5.65802 10.3038 5.23835
94 1 5.35859 11.7339 5.25914
95 1 5.9179 9.90386 3.85945
20 1 3.06598 11.5048 4.69265
87 1 3.13588 10.8441 3.36635
93 1 5.58038 9.77256 6.5823
100 1 5.22993 10.666 7.89746
106 1 5.02315 12.0397 8.48273
101 1 5.41127 9.71046 8.93765
99 1 3.22028 9.92503 9.90526
103 1 3.07529 11.8092 11.9048
33 1 3.83579 12.1468 9.33309
98 1 3.4796 11.2289 10.3446
15 1 6.53408 0.144516 4.86412
121 1 7.9596 -0.145643 5.22782
123 1 8.66367 1.03523 4.72117
19 1 6.18758 0.945566 3.60581
137 1 7.19244 0.423294 9.5464
129 1 8.55131 0.248828 9.20964
134 1 6.93953 2.83268 11.3492
147 1 7.88955 5.04827 2.70487
139 1 8.97039 5.77613 2.16785
156 1 6.73579 4.22447 4.70966
150 1 8.10536 3.96962 4.79461
141 1 6.65823 4.51991 3.26516
151 1 8.5638 5.35768 7.28921
166 1 7.53921 4.59564 7.97223
23 1 6.37201 3.95116 7.2472
165 1 8.60004 4.75233 10.2219
136 1 8.72271 4.30264 11.6023
35 1 6.86227 3.05964 9.82777
167 1 7.55399 4.1829 9.32369
130 1 8.37473 3.11466 11.9668
171 1 7.78677 8.73312 1.37757
140 1 7.72659 8.30945 -0.0789481
142 1 7.9785 7.70023 2.32303
145 1 6.41489 7.53152 -0.160717
144 1 6.8045 7.25636 3.43827
148 1 6.94271 7.29771 4.78164
154 1 8.17777 7.18673 5.28124
153 1 8.34097 6.67685 6.66687
162 1 8.35723 7.76357 7.615
159 1 8.79534 7.50115 8.97939
188 1 8.11375 9.078 11.3326
160 1 7.5773 7.28109 9.60441
74 1 6.26039 7.00272 9.2084
169 1 6.86915 9.80141 1.51987
174 1 7.92256 11.1677 3.10737
170 1 6.80401 10.4077 2.82797
178 1 8.49278 11.3213 6.14299
184 1 8.1806 9.21999 7.25031
181 1 8.52958 11.4981 8.41576
180 1 7.87716 10.161 8.46576
177 1 8.56599 9.97094 6.08536
104 1 6.74833 9.67898 9.31305
110 1 7.03995 9.66887 10.6567
86 1 6.25594 10.1848 11.7697
115 1 11.0406 1.87826 2.3077
112 1 10.3396 2.34791 1.13165
114 1 9.21051 2.56782 0.454612
116 1 12.1409 1.14877 2.87348
111 1 10.3519 2.35795 3.60672
126 1 11.1303 0.190334 4.72196
120 1 10.1726 1.26974 4.54908
127 1 10.3868 0.331764 7.66067
131 1 9.90301 0.833819 8.90057
135 1 10.6057 1.98626 9.28459
132 1 11.8157 2.58682 9.54273
119 1 9.97512 5.12401 1.24485
117 1 11.1627 4.88088 1.82254
113 1 9.49748 4.99461 0.0221075
128 1 10.3287 3.83396 3.92962
124 1 9.5202 4.06435 5.05449
146 1 11.0587 4.8894 3.33748
161 1 10.561 4.54062 8.71422
155 1 9.91829 4.91449 7.41049
125 1 10.3703 4.17219 6.19399
122 1 11.78 3.62634 6.3848
133 1 11.8984 3.8435 9.0095
163 1 10.0923 5.32631 9.81663
143 1 9.23245 7.11188 2.54598
168 1 11.731 7.26905 0.12137
149 1 9.2732 7.97859 4.9119
138 1 10.0805 7.19874 3.77851
157 1 11.2505 6.17364 4.01278
152 1 11.5256 7.06867 6.55076
158 1 10.6339 6.65584 10.2081
164 1 10.1913 7.91275 9.4071
79 1 11.511 6.71646 11.2871
172 1 9.97753 10.3479 4.27138
173 1 10.911 11.0647 4.8607
176 1 11.9674 10.4376 5.85128
179 1 9.24506 10.8873 3.26148
175 1 9.42037 9.34025 5.10686
182 1 11.7744 9.65698 8.22655
186 1 11.7412 10.7931 7.29915
189 1 11.8432 12.2454 7.57982
185 1 9.20912 11.8524 7.20392
187 1 10.2377 10.1562 10.1893
190 1 11.087 11.0227 10.7967
191 1 9.33015 9.4994 10.9228
105 1 12.0673 11.8492 10.5318
183 1 10.7194 9.25075 9.16454
ITEM: TIMESTEP
4000
ITEM: NUMBER OF ATOMS
191
ITEM: BOX BOUNDS pp pp pp
-1.7698546250245314e-01 1.2176985462502453e+01
-1.7698546250245314e-01 1.2176985462502453e+01
-1.7698546250245314e-01 1.2176985462502453e+01
ITEM: ATOMS id type x y z
4 1 1.65207 2.32912 1.2033
12 1 1.00451 0.616727 4.86982
118 1 -0.0864744 0.726 4.00198
11 1 0.765148 0.821335 7.26273
32 1 1.51603 0.781446 8.41032
17 1 2.48245 2.10358 6.10528
13 1 1.35129 1.20223 6.04171
28 1 0.663607 0.769191 9.67043
29 1 0.347572 2.18328 9.94068
30 1 1.35128 2.5961 10.9635
38 1 2.59727 1.76163 11.0003
7 1 0.159463 4.42233 1.33515
6 1 0.917764 3.47184 0.792571
45 1 1.07916 5.36135 2.1189
63 1 0.946 4.90657 8.42235
14 1 2.21211 3.41148 6.26904
22 1 0.930565 3.78733 6.33208
34 1 1.33032 3.77472 11.753
64 1 1.48278 5.0103 11.0741
66 1 1.90347 4.95798 9.52641
41 1 1.19704 7.81262 2.68124
42 1 1.02527 8.22973 1.35739
43 1 2.22149 8.16875 0.613854
39 1 -0.0371946 8.49981 0.552588
40 1 0.886431 6.51159 2.84381
54 1 2.5137 6.79663 5.02715
50 1 1.99348 8.77783 3.43578
52 1 1.05777 6.58108 5.10803
53 1 0.0632443 6.32725 4.09763
59 1 0.408727 6.57275 6.49103
67 1 1.95321 7.19267 8.37718
108 1 1.53707 8.56637 8.45322
109 1 0.247813 8.81648 7.94084
71 1 0.997144 6.24735 7.74648
77 1 1.35066 6.45671 11.5903
76 1 1.9612 7.69829 11.6524
75 1 1.23608 8.79285 10.8794
89 1 0.747001 10.8626 0.509656
84 1 0.902565 10.6921 1.96244
83 1 2.01586 10.1223 2.81151
96 1 0.694199 10.5713 5.36811
21 1 1.48914 11.5853 4.79577
20 1 2.89893 11.6987 4.29355
80 1 0.431451 9.51805 11.9351
105 1 0.249306 12.173 10.5016
107 1 1.91076 9.27157 9.71777
3 1 4.48873 0.0870854 1.61464
1 1 3.73252 1.02171 0.834259
2 1 5.41221 0.595161 2.66832
5 1 2.93787 2.15496 1.59233
16 1 3.88483 0.0350626 5.16776
18 1 3.79614 1.41804 5.98343
10 1 4.81523 2.24335 6.50779
31 1 2.95328 0.854586 8.86498
25 1 3.47631 1.85435 9.82196
36 1 3.23656 0.610834 11.9255
24 1 5.77284 2.67173 9.10402
48 1 4.1858 4.74396 0.746931
44 1 5.37708 5.04153 2.896
46 1 4.48811 4.20035 2.25935
8 1 3.7592 3.19176 2.37733
51 1 3.43834 5.81437 5.75631
56 1 5.03513 5.78426 5.79843
58 1 5.85805 4.65611 5.95404
9 1 5.77292 3.03529 7.71488
57 1 2.95715 4.65406 6.56914
78 1 4.85266 4.35009 11.9382
68 1 4.33838 4.44951 9.61826
69 1 5.03316 5.0881 10.7215
27 1 4.42431 2.98163 9.54182
70 1 3.3391 5.30618 9.32385
37 1 5.74384 3.29121 12.0859
47 1 4.65372 7.6565 2.39638
82 1 4.51136 8.44185 1.28063
90 1 3.37154 9.00286 0.701798
49 1 5.64322 6.45942 2.79267
92 1 4.32136 8.23294 3.64963
55 1 5.71719 6.93901 5.95363
60 1 2.99112 7.89992 4.24248
61 1 5.71511 7.99361 6.99769
62 1 5.64173 7.32501 8.40784
73 1 4.34374 7.54013 9.02398
65 1 3.29366 6.7109 8.8436
102 1 4.40734 8.88081 9.7283
88 1 3.80744 11.1904 1.81996
85 1 3.50618 10.4969 0.497808
91 1 5.73055 9.18729 0.687491
97 1 5.27535 10.1278 5.39282
94 1 5.22543 11.676 5.40512
95 1 5.21378 9.48711 3.9716
87 1 2.96789 11.1345 3.01239
93 1 5.45499 9.54894 6.72399
100 1 5.1852 10.349 7.99793
106 1 4.89348 11.7739 8.25979
33 1 3.6654 11.9934 8.99663
99 1 3.27157 9.80888 9.89234
103 1 3.35047 11.492 11.6911
98 1 3.43445 11.1518 10.2118
101 1 5.5986 9.57067 9.2195
86 1 5.92048 9.89476 11.8746
19 1 6.10668 0.693605 3.7424
123 1 8.60565 0.828378 4.76739
15 1 6.35279 0.10557 5.05141
121 1 7.72585 -0.0349048 5.39644
26 1 6.05144 0.339177 8.51808
137 1 7.16163 0.714316 9.09743
129 1 8.50551 0.360761 9.17179
147 1 7.89517 4.17691 2.83618
139 1 8.8165 5.12982 2.28223
156 1 6.74719 4.26841 4.99277
150 1 8.04193 3.82711 5.42371
141 1 6.56766 4.30814 3.58533
151 1 8.50554 5.46932 7.46026
166 1 7.53187 4.64818 8.03909
23 1 6.28185 4.28804 7.38818
35 1 7.0031 3.1078 9.89198
165 1 8.88145 4.74079 9.99506
72 1 6.17347 5.96228 10.5418
130 1 8.36591 3.37715 11.9801
134 1 6.95851 3.05853 11.3329
167 1 7.91711 4.15281 9.19498
136 1 8.86469 4.62181 11.4054
171 1 7.74327 8.39016 1.6194
140 1 8.27338 8.14868 0.284869
142 1 7.88417 7.41669 2.64319
143 1 8.93112 6.41708 2.78106
145 1 7.68225 6.95607 0.00239745
144 1 6.83833 7.05534 3.50443
148 1 6.85695 7.2425 4.97799
154 1 8.31494 7.01039 5.41894
153 1 8.39016 6.7826 6.84923
162 1 8.62452 7.93442 7.6097
159 1 8.92483 7.63733 8.92027
74 1 6.52039 6.77836 9.48724
160 1 7.83602 7.18783 9.60613
81 1 6.93296 6.20344 11.7185
169 1 6.7323 9.30859 1.69191
170 1 6.38107 9.84448 2.91053
174 1 7.54905 10.6445 3.32259
179 1 8.95128 10.5102 3.24261
184 1 8.34651 9.23051 7.3613
181 1 8.49371 11.43 8.45078
180 1 7.9445 10.1664 8.55514
177 1 8.62615 9.78592 6.1363
178 1 8.46914 11.2641 6.15383
104 1 6.98745 9.6729 9.69888
110 1 7.11369 9.72669 11.1891
188 1 8.32972 9.31008 11.7963
115 1 11.0006 1.8062 2.16689
112 1 10.3081 1.88939 0.96979
116 1 12.1745 1.19504 2.67427
114 1 9.13607 2.41901 0.366435
111 1 10.3242 2.37401 3.44011
126 1 10.9358 0.104307 4.38289
120 1 9.86588 1.11443 4.17618
127 1 10.237 0.522344 7.53307
131 1 9.63038 1.24884 8.6574
189 1 11.6947 0.234455 7.36187
135 1 10.4455 2.38895 8.73733
119 1 9.91586 5.07918 1.23794
117 1 11.1238 4.60753 1.88341
113 1 9.65253 5.39474 -0.0804868
128 1 10.3104 3.64756 3.99029
124 1 9.61697 3.77371 5.33205
146 1 10.8288 4.72335 3.26602
157 1 11.0672 5.96806 3.8929
122 1 12.0883 4.09385 5.96106
161 1 10.7344 4.94275 8.55776
155 1 9.83214 4.85993 7.39408
133 1 12.0006 4.15005 8.58624
125 1 10.6099 4.26677 6.28124
163 1 10.0268 5.53401 9.55691
132 1 11.6515 2.94592 9.24997
168 1 11.4572 7.40316 0.186484
138 1 9.99445 6.97885 3.84921
149 1 9.31384 7.83806 4.70758
152 1 12.1798 7.87858 6.86918
158 1 10.562 6.75896 10.297
164 1 10.1375 8.06594 9.59375
79 1 10.5515 6.63214 11.7787
172 1 9.84007 10.2164 4.2391
173 1 10.7465 11.1628 4.79817
175 1 9.3868 9.22993 5.14289
176 1 11.7025 10.6829 5.89108
182 1 11.6784 9.86012 8.24225
186 1 11.7046 10.9602 7.3669
185 1 9.15076 11.7644 7.30892
187 1 10.5916 10.3102 10.4061
190 1 11.4949 11.29 10.2948
191 1 9.4834 10.2092 11.3305
183 1 10.6915 9.37614 9.39232
ITEM: TIMESTEP
5000
ITEM: NUMBER OF ATOMS
191
ITEM: BOX BOUNDS pp pp pp
-1.1446060331407543e-01 1.2114460603314035e+01
-1.1446060331407543e-01 1.2114460603314035e+01
-1.1446060331407543e-01 1.2114460603314035e+01
ITEM: ATOMS id type x y z
4 1 1.89918 2.83523 1.73426
116 1 -0.00630224 1.61991 2.80312
12 1 0.954593 0.441289 4.87443
118 1 0.00134806 0.742962 3.94926
11 1 0.729943 0.682054 7.28852
32 1 1.50534 0.495067 8.60301
17 1 2.561 1.88758 6.30341
13 1 1.37381 1.07519 6.09746
28 1 0.586922 0.754322 9.87226
29 1 0.553433 2.19792 10.0739
30 1 1.58376 2.59817 10.9655
38 1 2.8433 1.90278 10.8658
7 1 0.489828 4.67068 1.65118
6 1 1.2499 3.68799 0.978166
45 1 1.22788 5.67647 2.31263
63 1 0.804045 4.97598 8.7316
14 1 2.31702 3.19962 6.07026
22 1 0.746623 3.53484 6.1657
34 1 1.42298 3.70701 11.7767
64 1 1.58801 4.96694 11.0557
66 1 1.89508 4.91199 9.68847
43 1 2.12427 8.24797 0.713712
42 1 0.983065 8.31279 1.43155
41 1 1.10648 8.02335 2.77458
54 1 2.70159 6.84627 5.015
50 1 1.9182 8.87142 3.47903
52 1 1.21661 6.41688 5.39362
53 1 0.35429 6.30884 4.34101
40 1 0.852456 6.74 3.08034
59 1 0.572096 6.64211 6.63755
67 1 1.89286 7.08277 8.30529
108 1 1.33553 8.37689 8.5182
109 1 0.146935 8.76714 7.8542
71 1 0.927524 6.15815 7.89793
77 1 1.92192 6.25237 11.4351
76 1 1.75378 7.623 11.6028
75 1 1.11294 8.703 10.9381
89 1 0.622342 10.6886 0.717666
84 1 0.981815 10.6681 2.02
96 1 0.854499 10.5237 5.24172
21 1 1.74554 11.5317 4.80497
83 1 1.9979 10.0921 2.99972
80 1 0.25963 9.62353 12.0282
107 1 1.7363 9.11694 9.70389
99 1 2.95576 9.7407 9.88157
3 1 4.41753 0.447521 1.93575
1 1 3.61616 1.34217 1.1691
2 1 5.70535 0.431663 2.56089
5 1 3.14359 2.36746 2.03654
16 1 4.17231 0.133925 5.27686
10 1 4.99586 1.88467 6.70965
9 1 5.98782 2.76157 7.39118
31 1 2.9507 0.664755 8.90624
24 1 5.79862 2.76838 8.79667
18 1 3.90944 1.18864 6.21218
25 1 3.41101 1.83385 9.53483
36 1 3.14318 0.788761 12.0701
48 1 4.47018 4.64268 0.822202
8 1 3.93139 3.47113 2.71102
46 1 4.54758 4.59588 2.19211
44 1 5.50004 5.43002 2.83666
51 1 3.5468 5.60946 5.46524
56 1 4.97564 5.69995 5.81262
57 1 3.1743 4.2253 5.59189
78 1 5.12856 4.10135 11.9508
68 1 4.23365 4.34908 9.62241
69 1 5.11134 4.82651 10.6909
27 1 4.46674 2.95578 9.27205
72 1 5.93424 6.02543 10.5575
70 1 3.266 5.34338 9.35985
47 1 4.56857 7.80497 2.45079
82 1 4.57756 8.52877 1.20309
49 1 5.52012 6.81259 2.7132
92 1 4.29791 8.50255 3.72895
60 1 2.94839 8.11023 4.16831
55 1 5.59737 7.02003 5.89086
61 1 5.55322 7.79294 7.06501
62 1 5.35933 7.16116 8.32852
65 1 3.08862 6.66245 8.92016
73 1 4.14183 7.63322 8.90933
102 1 4.10736 8.92977 9.51127
88 1 3.85169 11.4234 1.93482
85 1 3.51151 10.6128 0.663452
91 1 5.6698 9.21045 0.806518
90 1 3.32518 9.13752 0.899313
97 1 5.45838 10.1196 5.42687
94 1 5.49887 11.7009 5.39672
95 1 5.36571 9.5219 4.15919
87 1 3.20797 10.956 3.10926
20 1 3.18419 11.5438 4.3904
93 1 5.33322 9.43993 6.78538
100 1 5.11275 10.2407 7.95471
106 1 5.01439 11.6419 8.59772
101 1 5.33306 9.52534 9.18127
103 1 3.39551 11.5714 11.6301
98 1 3.17318 10.9868 10.3389
33 1 3.75094 11.8145 9.28482
86 1 5.98983 9.9191 11.8509
15 1 6.62154 0.208418 4.86411
123 1 8.76705 1.27276 5.28832
121 1 7.82202 0.318571 5.52813
19 1 6.77096 -0.0183744 3.44068
129 1 8.69278 0.310629 9.5048
137 1 7.2498 0.592801 9.58586
26 1 6.1387 0.181434 9.08133
147 1 7.88212 4.70559 2.41727
139 1 8.96845 5.49129 2.1211
37 1 6.10994 3.08279 -0.306939
156 1 6.77658 4.29739 4.64955
150 1 7.99564 3.69296 4.94366
141 1 6.75501 4.78235 3.26399
58 1 5.86486 4.60153 5.7022
151 1 8.47761 5.52174 7.30749
166 1 7.50463 4.69098 7.82909
23 1 6.47735 4.07818 6.87057
35 1 6.93441 3.21786 9.6884
134 1 7.2487 2.94167 11.2561
165 1 8.93339 4.68067 9.9161
167 1 7.74777 4.25806 9.1419
130 1 8.62061 3.1245 11.6673
171 1 7.81789 8.27827 1.37537
140 1 8.22559 8.03148 0.024889
142 1 7.84516 7.51441 2.54367
143 1 8.98449 6.74092 2.82924
144 1 6.7034 7.37623 3.3403
148 1 6.68921 7.2876 4.74286
154 1 8.0859 7.37336 5.34872
153 1 8.2709 6.87735 6.6557
162 1 8.57308 8.07103 7.49571
159 1 8.8313 7.59197 8.84127
74 1 6.29167 6.65164 9.36324
160 1 7.65327 7.05628 9.19657
81 1 6.70018 6.3547 11.6613
145 1 7.85707 6.75758 11.92
169 1 6.68545 9.18054 1.66399
174 1 7.50575 11.0709 3.04079
170 1 6.65279 9.82661 2.9865
179 1 8.83185 10.7518 3.21708
184 1 8.00652 9.39171 7.42214
181 1 8.73282 11.3522 8.73822
180 1 7.82526 10.1496 8.65669
178 1 8.39823 11.5383 6.35276
177 1 8.29972 10.0968 6.20766
104 1 6.66775 9.89243 9.5641
110 1 6.98416 9.70449 10.9236
188 1 8.18852 9.21514 11.4121
115 1 10.8469 1.95478 2.29108
112 1 10.231 1.81914 1.02977
114 1 9.34414 2.274 0.239889
111 1 9.96848 2.2306 3.44642
126 1 10.8828 0.239393 4.42888
120 1 9.95412 1.1955 4.51999
127 1 10.327 0.554157 7.82502
189 1 11.6349 0.09412 7.29217
135 1 10.5526 2.24346 9.43091
105 1 11.9813 -0.0564056 10.5302
131 1 9.83524 1.0608 9.03831
119 1 10.0873 5.03012 1.16908
117 1 11.2567 4.64939 2.01172
128 1 10.0863 3.49776 3.87477
124 1 9.32697 3.82901 5.0104
146 1 10.8125 4.64899 3.44861
161 1 10.6234 4.93862 8.46299
155 1 9.83672 4.92001 7.22002
133 1 11.7994 4.17659 8.82281
125 1 10.1539 3.98381 6.16964
122 1 11.5839 3.74178 5.99124
163 1 9.96029 5.52683 9.49909
132 1 11.7195 2.93746 9.50539
136 1 9.27763 4.29815 11.2405
113 1 10.1594 5.29966 11.9998
168 1 11.164 7.55118 0.0414537
39 1 11.8443 8.67094 0.56349
138 1 9.97369 7.00035 3.93487
149 1 9.38702 7.82142 4.89922
157 1 11.0968 6.03812 4.17212
152 1 12.2666 7.95832 6.68119
158 1 10.4382 6.71169 10.0917
164 1 10.1154 7.87129 9.39441
79 1 10.6696 6.52082 11.4168
172 1 9.71871 10.2797 4.28171
173 1 10.8504 11.0209 4.66926
176 1 11.6622 10.561 5.68261
175 1 9.24068 9.34094 5.33038
182 1 11.4039 9.69974 8.02672
186 1 11.457 10.8538 7.02671
185 1 9.19861 11.9508 7.37309
187 1 10.4333 10.0085 10.2634
190 1 11.1016 11.1874 10.5446
191 1 9.46371 9.71993 11.1427
183 1 10.6047 9.23542 9.09288
ITEM: TIMESTEP
6000
ITEM: NUMBER OF ATOMS
191
ITEM: BOX BOUNDS pp pp pp
-1.3350438685486610e-01 1.2133504386854810e+01
-1.3350438685486610e-01 1.2133504386854810e+01
-1.3350438685486610e-01 1.2133504386854810e+01
ITEM: ATOMS id type x y z
4 1 1.98457 2.64832 1.64085
12 1 1.02581 0.536494 4.95704
118 1 -0.0333193 0.648274 3.96714
11 1 0.844754 0.549175 7.49247
32 1 1.55507 0.781173 8.69151
13 1 1.36548 1.05654 6.25489
17 1 2.46819 1.97072 6.05769
28 1 0.736063 0.811507 9.80144
29 1 0.488875 2.2189 9.94239
30 1 1.39027 2.65555 10.9721
38 1 2.77218 1.95871 11.1113
7 1 0.383009 4.6242 1.67046
6 1 1.03788 3.64481 0.871025
45 1 1.17454 5.55888 2.33018
14 1 2.16162 3.33943 5.82026
22 1 0.687544 3.56482 5.91928
63 1 0.72392 5.11914 8.62962