ITEM: TIMESTEP
1000
ITEM: NUMBER OF ATOMS
191
ITEM: BOX BOUNDS pp pp pp
0.0000000000000000e+00 1.2000000000000000e+01
0.0000000000000000e+00 1.2000000000000000e+01
0.0000000000000000e+00 1.2000000000000000e+01
ITEM: ATOMS id type x y z
12 1 1.20509 0.848646 4.8824
1 1 2.45416 2.21262 3.44646
118 1 0.0568909 0.931156 4.21542
31 1 2.7963 1.20012 8.59879
32 1 1.33362 1.11411 8.47168
11 1 0.524598 1.20419 7.34151
17 1 2.71238 2.40746 6.16634
13 1 1.38231 1.67759 6.10224
28 1 0.600435 1.06936 9.68613
29 1 0.380463 2.49177 10.0643
30 1 1.54051 2.88833 10.6729
38 1 2.76966 2.1392 10.5977
4 1 2.18611 3.42645 1.49308
6 1 1.37529 4.1638 0.681185
7 1 0.316389 4.7799 1.23673
5 1 2.72351 3.38718 2.80547
53 1 0.358511 5.83537 4.1516
14 1 2.48962 3.77126 6.47623
22 1 1.04066 4.12647 6.92577
63 1 0.861504 4.89394 8.19573
34 1 1.60511 4.1806 11.3394
64 1 1.84804 5.17285 10.4568
66 1 1.97643 4.87993 9.13738
39 1 0.181589 8.50532 0.712513
43 1 2.65505 8.15867 0.868042
42 1 1.41328 7.99508 1.5577
45 1 0.410238 6.0196 1.6437
40 1 0.607622 6.50916 2.98891
41 1 1.37971 7.70322 2.91852
54 1 2.3679 6.52629 5.21292
50 1 2.14686 8.46843 3.69532
52 1 1.04645 6.21113 5.25484
60 1 2.43505 7.90596 4.88676
59 1 0.319578 6.54721 6.41356
67 1 1.82448 7.31926 8.10585
71 1 0.824954 6.39916 7.65354
108 1 1.50378 8.72625 8.5489
75 1 1.63839 8.73584 10.9
76 1 2.39605 7.75422 11.4558
77 1 2.36185 6.3648 11.1126
89 1 1.68557 10.4378 0.778156
84 1 1.26087 10.293 2.26055
96 1 1.39937 10.5244 5.80047
21 1 1.92503 11.6793 5.0829
83 1 1.97272 9.86486 3.45811
109 1 0.460584 9.13924 7.92927
107 1 1.96788 9.23301 9.68906
80 1 0.964113 9.47731 11.8748
3 1 3.46182 1.23958 3.5408
16 1 4.12741 0.164967 5.50129
2 1 4.94593 1.47411 3.18049
9 1 5.79569 2.82726 7.153
24 1 5.70492 2.43076 8.65892
26 1 5.83625 0.933983 8.58776
10 1 5.33926 2.06308 6.16372
18 1 3.95423 1.52412 6.0336
25 1 3.47206 2.22466 9.36298
36 1 3.1563 1.05003 11.3995
48 1 4.33373 4.65548 0.709691
44 1 5.99016 5.22315 2.44868
46 1 4.83482 4.57961 2.03733
8 1 3.91788 4.06314 2.96916
58 1 5.89245 4.77236 5.62939
56 1 5.05263 5.94244 5.47293
51 1 3.61934 5.79543 5.77172
70 1 3.40603 5.25056 8.37877
57 1 3.29911 4.88631 6.83742
78 1 5.12797 4.29346 11.5245
68 1 4.40579 4.42649 9.42396
69 1 5.059 5.21573 10.3426
27 1 4.47806 3.0505 9.22505
47 1 5.19546 7.94796 2.43487
82 1 4.90455 8.78538 1.39948
92 1 5.0144 8.61295 3.70179
55 1 5.95341 7.18716 5.53858
73 1 4.19161 7.74413 8.55678
62 1 5.53684 7.49362 7.95057
65 1 3.19209 6.8109 8.4114
61 1 5.63671 8.06901 6.60218
72 1 5.55993 6.5066 10.3029
81 1 5.54413 7.76087 11.0694
88 1 3.49987 11.0428 2.1632
85 1 3.16455 10.4098 1.00517
91 1 5.91697 9.71594 1.04399
90 1 3.67653 9.11918 1.0001
94 1 5.51007 11.7138 5.47563
97 1 5.54044 10.2859 5.25334
87 1 3.11333 10.7168 3.43176
20 1 3.18504 11.8843 4.2963
95 1 5.89847 9.73487 4.04418
93 1 5.64775 9.60237 6.45837
100 1 5.39615 10.4731 7.59658
101 1 5.51693 9.71445 8.84227
106 1 4.93343 11.8978 7.96221
33 1 3.59975 11.9983 8.55921
98 1 3.50555 11.1841 9.68144
103 1 3.22428 11.7935 10.9441
99 1 3.27887 9.79207 9.59418
102 1 4.32834 9.07969 9.01661
114 1 8.60925 1.0636 0.341457
15 1 6.28686 1.03729 5.36838
19 1 6.14573 1.31933 3.9212
121 1 7.76238 0.614062 5.91285
128 1 8.88866 2.97665 3.70562
129 1 8.35478 0.18746 9.37563
130 1 8.26103 2.13424 11.4211
137 1 7.02759 0.504277 9.32774
134 1 6.96563 2.54662 10.8961
35 1 6.87822 2.8466 9.43909
147 1 8.12484 3.78741 2.81579
139 1 8.95702 4.71955 2.11283
141 1 6.86754 4.534 3.29409
150 1 8.14886 4.52859 5.47536
156 1 6.87198 4.6036 4.71775
151 1 8.27125 5.07366 6.80782
166 1 7.22697 4.60737 7.64401
23 1 6.11789 4.13615 6.99852
167 1 7.57641 4.01855 8.90824
165 1 8.33637 4.89564 9.7276
37 1 6.09022 3.28999 11.648
49 1 6.32647 6.66491 2.15676
140 1 7.99375 7.68454 0.383597
142 1 8.58072 7.38481 2.5869
145 1 6.96274 6.67636 0.681379
171 1 8.11027 8.45739 1.63405
144 1 7.31434 7.04926 3.2988
148 1 7.18411 7.1601 4.73754
154 1 8.35935 7.1502 5.53352
153 1 8.1698 6.55922 6.73473
162 1 8.58165 7.49694 7.74916
184 1 8.14193 8.93666 7.51019
188 1 7.99517 8.26872 11.0671
74 1 6.48352 6.90777 9.14608
160 1 7.81743 7.2395 9.89896
169 1 7.09657 9.53003 1.87342
174 1 7.97704 10.9841 3.56656
170 1 6.93637 10.1165 3.21665
177 1 8.34338 9.55504 6.12299
178 1 8.10362 11.1346 6.34415
180 1 7.89147 9.70405 8.60484
181 1 8.60636 10.9521 8.71045
185 1 8.91145 11.4014 7.40967
104 1 6.73251 9.58153 9.41521
110 1 6.49943 9.08283 10.8292
86 1 6.07477 10.1283 11.7812
115 1 10.3233 1.23323 2.44296
116 1 11.6482 0.993539 2.82226
112 1 9.70433 1.22206 1.2498
111 1 9.4857 1.66562 3.53701
126 1 10.9251 0.207048 4.75638
120 1 9.76984 1.11383 4.82804
123 1 9.07273 1.35593 5.95414
127 1 9.85358 0.871564 7.35898
189 1 11.3665 0.497339 7.24559
131 1 9.26943 1.27343 8.8753
135 1 9.92736 2.45712 9.72437
136 1 9.31994 2.91918 10.9834
105 1 11.8296 0.0101488 10.1355
119 1 10.0568 4.12402 1.1601
117 1 11.2913 4.10232 1.87838
157 1 11.3328 4.9189 4.17809
124 1 9.18021 3.70881 5.01453
146 1 11.3855 3.97031 3.30822
138 1 10.2186 5.74187 3.89366
161 1 10.2777 4.94223 8.31128
155 1 9.72347 4.77316 7.05922
133 1 11.4486 4.36918 8.8939
122 1 11.7791 3.7662 6.22739
125 1 10.4313 4.01175 6.05778
163 1 9.44619 5.61201 9.18789
113 1 9.86272 3.82653 11.855
132 1 11.2015 3.12199 9.46298
143 1 9.41135 6.11047 2.82495
168 1 11.139 7.60473 0.563201
149 1 9.69535 7.6531 5.41856
152 1 10.827 7.13612 6.19421
159 1 9.168 7.09184 8.9772
158 1 11.2905 7.02504 10.2119
164 1 10.4181 7.84684 9.49228
79 1 11.2299 6.74242 11.5198
172 1 10.0074 10.0659 4.56232
173 1 11.0291 10.7553 5.07982
175 1 9.42791 9.05859 5.30838
179 1 9.28849 10.6904 3.58403
182 1 11.2861 9.8532 8.11419
186 1 11.4828 11.032 7.29613
176 1 11.9937 10.5963 6.03074
187 1 10.2157 9.88624 10.5578
190 1 10.9942 11.1135 10.7664
183 1 10.5117 9.3033 9.2034
191 1 9.03 9.33326 11.045
ITEM: TIMESTEP
2000
ITEM: NUMBER OF ATOMS
191
ITEM: BOX BOUNDS pp pp pp
-1.1172967475079390e-01 1.2111729674750809e+01
-1.1172967475079390e-01 1.2111729674750809e+01
-1.1172967475079390e-01 1.2111729674750809e+01
ITEM: ATOMS id type x y z
4 1 1.73773 2.86384 1.44908
5 1 2.8832 2.70447 2.27581
12 1 1.21446 0.659611 4.74329
118 1 0.196069 0.356333 3.87607
13 1 1.2544 1.47563 6.02116
31 1 2.69231 0.967139 8.67929
32 1 1.21549 0.783187 8.54792
11 1 0.546855 0.782126 7.2157
17 1 2.48077 2.19724 6.01248
28 1 0.290045 0.93849 9.62488
29 1 0.316809 2.36344 10.2015
30 1 1.37626 2.65888 11.0218
38 1 2.59822 2.02306 10.7606
7 1 0.436619 4.85145 1.37201
6 1 1.12642 3.85468 0.699583
45 1 1.01457 5.86634 2.01357
14 1 2.2712 3.56709 6.51825
22 1 0.931795 3.87611 7.04487
63 1 0.740217 4.58819 8.3418
34 1 1.42437 3.95022 11.5791
64 1 1.82336 5.02249 10.6433
66 1 1.90524 4.73356 9.14809
39 1 0.170348 8.62888 1.04114
43 1 2.41544 8.12894 0.694105
42 1 1.37064 8.14143 1.70603
41 1 1.62737 7.73361 2.98131
54 1 2.42242 6.65697 5.63176
50 1 2.3355 8.67455 3.80962
52 1 0.996 6.37927 5.57156
40 1 0.957327 6.58194 3.15301
60 1 2.60332 7.91078 5.00488
53 1 0.423836 6.15225 4.24034
108 1 1.40119 8.45286 8.50857
67 1 1.72854 7.04086 8.15164
71 1 0.548633 6.30132 7.86249
109 1 0.186433 8.87842 7.95644
77 1 1.96421 6.25337 11.2529
76 1 1.89406 7.66451 11.6621
75 1 1.18183 8.87767 10.956
89 1 1.4759 10.7146 0.824452
84 1 1.46009 10.5528 2.25471
80 1 0.747949 9.84629 -0.0116056
96 1 1.28213 10.5648 5.65389
21 1 1.95304 11.6755 5.04842
83 1 2.27547 10.0013 3.27189
176 1 -0.133838 10.6444 5.86694
107 1 1.81277 9.13503 9.72429
3 1 5.14617 1.16929 1.977
1 1 3.91117 1.79937 2.17505
16 1 4.21798 0.0895591 5.3725
18 1 3.80842 1.50722 5.80418
26 1 5.81871 0.788204 8.90204
24 1 5.63311 2.33171 8.64494
10 1 5.05196 2.03076 6.2107
9 1 5.64412 2.84066 7.22402
25 1 3.14416 2.12495 9.44113
36 1 2.89927 0.899259 11.6195
48 1 4.21451 4.95186 0.648726
44 1 5.54867 5.20771 2.75191
46 1 4.40354 4.73877 2.04538
8 1 3.44252 3.95446 2.72241
56 1 5.01471 5.71744 5.62665
51 1 3.55907 5.85311 5.93379
58 1 5.86743 4.48027 5.70168
70 1 3.15343 5.13311 8.5
57 1 3.15896 4.69919 6.91694
78 1 4.83924 4.65477 11.6302
68 1 4.16864 4.46307 9.33664
69 1 4.76961 5.2432 10.3395
37 1 5.68399 3.47925 11.6514
27 1 4.2287 3.07312 9.2477
47 1 5.04953 7.7153 2.35487
82 1 4.64828 8.65062 1.38035
92 1 5.05445 8.32054 3.65275
55 1 5.80536 7.06851 5.58042
73 1 4.04991 7.76126 8.60585
62 1 5.46333 7.47991 8.00884
61 1 5.69642 8.0578 6.76784
65 1 3.15532 6.72098 8.37656
72 1 5.34442 6.46034 10.1142
81 1 5.43583 7.6045 10.9335
102 1 4.27038 9.02692 9.10363
88 1 3.58426 11.3893 1.98778
85 1 3.14189 10.777 0.544715
91 1 5.7434 9.55589 1.07971
90 1 3.3008 9.08542 0.805734
20 1 3.27212 11.6698 4.58729
94 1 5.61936 11.7387 5.37683
97 1 5.54373 10.2881 5.27744
87 1 3.37534 11.0065 3.37621
95 1 5.73227 9.59911 4.05847
93 1 5.47877 9.64973 6.52639
100 1 5.23127 10.7079 7.83866
101 1 5.41467 9.84789 8.94507
106 1 4.8673 12.093 8.2931
33 1 3.55686 12.0795 9.06957
98 1 3.25226 11.116 10.0999
99 1 3.17041 9.70033 9.87312
103 1 3.27696 11.7195 11.4786
86 1 5.84995 9.96043 11.9311
114 1 8.70383 1.91107 0.422976
2 1 6.29039 1.23352 2.724
15 1 6.87485 0.163677 5.00525
19 1 6.96071 0.67286 3.68864
121 1 8.22813 -0.0677115 5.65444
129 1 8.22664 0.466946 9.50237
130 1 8.13723 2.51065 11.4927
137 1 6.82782 0.557672 9.94608
134 1 6.76069 2.83799 11.0826
147 1 7.84339 4.66802 2.40448
141 1 6.6473 4.51549 3.2649
150 1 8.23416 3.59562 4.98462
156 1 6.92532 4.23841 4.76664
151 1 8.50274 5.15936 7.04862
166 1 7.43809 4.4006 7.69043
23 1 6.24854 4.04916 7.02572
165 1 8.68217 4.31973 9.8069
35 1 6.5441 3.12222 9.59012
167 1 7.50073 4.04099 9.0495
171 1 7.91756 8.4796 1.51212
140 1 7.68766 7.72218 0.327823
142 1 8.29445 7.67933 2.65514
145 1 6.74284 6.65241 0.774883
49 1 5.99995 6.61032 2.23326
144 1 7.15108 7.10852 3.35896
148 1 7.06564 6.92478 4.80162
154 1 8.42589 6.96585 5.49849
153 1 8.35199 6.60459 6.81557
162 1 8.6165 7.51196 7.78335
184 1 8.36937 9.01197 7.71699
74 1 6.29023 6.90484 9.09374
159 1 8.94862 7.07449 9.12623
188 1 7.81605 8.35242 11.1683
160 1 7.57581 7.2656 9.74398
110 1 6.51127 9.02484 10.9545
169 1 6.94194 9.42176 1.8193
174 1 8.0183 10.7371 3.4968
170 1 6.82845 10.0111 3.22499
177 1 8.90344 9.63408 6.37666
178 1 8.79302 11.0501 6.42319
180 1 7.90208 9.92281 8.74807
181 1 8.46603 11.2721 8.78708
104 1 6.69219 9.67234 9.51851
191 1 8.99625 9.44255 10.8501
115 1 10.777 1.4615 2.09768
112 1 9.79493 1.36995 1.02529
116 1 12.0847 0.907075 2.52715
111 1 10.1578 2.05997 3.26674
120 1 10.1783 1.00339 4.38508
123 1 9.10035 0.986855 5.33681
126 1 11.2475 0.0728966 4.54317
127 1 10.1984 0.625835 7.90486
189 1 11.451 0.120382 7.36042
135 1 10.0593 2.47096 9.80332
105 1 11.5639 -0.0959634 10.1638
131 1 9.40853 1.35437 9.11168
119 1 10.0557 4.67264 1.04483
117 1 11.2869 4.57541 1.71821
139 1 9.12311 5.28623 1.93458
146 1 11.1015 4.40495 3.1368
124 1 9.72954 3.68326 4.93812
128 1 10.5043 3.30351 3.77942
157 1 11.3139 5.67411 3.88076
161 1 10.4487 5.11181 8.48001
155 1 9.91831 4.81748 7.10156
125 1 10.5593 4.0457 6.14373
122 1 11.8627 3.7854 6.34833
133 1 11.5627 4.39607 8.92492
163 1 9.38501 5.48922 9.25578
136 1 9.20416 3.32788 10.7704
113 1 9.74327 4.25578 11.9328
132 1 11.3834 3.00435 9.62668
143 1 9.2808 6.60549 2.76663
168 1 11.2599 7.81714 0.830461
149 1 9.78873 7.51256 5.15989
138 1 10.2437 6.66567 3.86582
175 1 9.69922 9.06622 5.25492
152 1 10.9182 7.27094 6.16391
59 1 12.065 6.57757 6.73137
158 1 10.931 7.53858 10.461
164 1 10.2933 7.88375 9.32915
79 1 10.6751 7.504 11.7768
172 1 10.2345 10.0549 4.57244
173 1 11.2088 10.9739 4.84319
179 1 9.34242 10.5301 3.60135
182 1 11.3432 9.83609 8.05175
186 1 11.5683 10.968 7.20124
185 1 9.3882 11.6065 7.68263
187 1 10.1027 9.96759 10.2491
190 1 10.6272 11.2535 10.4846
183 1 10.5349 9.37907 9.03371
ITEM: TIMESTEP
3000
ITEM: NUMBER OF ATOMS
191
ITEM: BOX BOUNDS pp pp pp
-2.1504968431427776e-01 1.2215049684314280e+01
-2.1504968431427776e-01 1.2215049684314280e+01
-2.1504968431427776e-01 1.2215049684314280e+01
ITEM: ATOMS id type x y z
4 1 1.65897 2.6565 1.40613
12 1 0.856979 0.739565 4.89355
118 1 -0.221703 0.620701 3.94278
13 1 1.09843 1.36378 6.14438
32 1 1.23288 0.651683 8.6816
11 1 0.400736 0.790852 7.418
17 1 2.44594 2.17895 6.0233
31 1 2.75145 0.657899 8.87422
28 1 0.266061 0.643665 9.757
29 1 0.257116 2.06322 10.2475
30 1 1.39072 2.49556 11.0197
38 1 2.71287 1.78556 11.0314
7 1 0.22927 4.5353 1.38921
6 1 0.942164 3.55702 0.587982
45 1 1.11338 5.37702 2.06212
14 1 2.19357 3.57907 6.47443
22 1 0.675019 3.94568 7.0386
63 1 0.674347 4.70208 8.37459
34 1 1.22815 3.82365 11.6487
64 1 1.78722 4.9257 10.8806
66 1 1.80553 4.68208 9.3461
39 1 0.213557 8.51143 0.65758
42 1 1.36003 7.99913 1.46862
43 1 2.56234 8.28499 0.728066
41 1 1.36597 7.63092 2.74788
54 1 2.3768 6.65288 5.44327
50 1 1.95951 8.6474 3.63466
52 1 0.813743 6.24811 5.45198
40 1 0.83979 6.29608 3.1019
53 1 0.0543409 6.11296 4.2961
60 1 2.45769 8.0337 4.84797
108 1 1.41358 8.45423 8.71669
67 1 1.66822 7.03269 8.56177
71 1 0.61732 6.18421 7.99146
59 1 -0.0685841 6.5599 6.63645
109 1 0.448108 9.10022 8.00804
77 1 2.2412 6.2622 11.403
76 1 2.33287 7.68436 11.8367
75 1 1.51366 8.74742 11.1713
107 1 1.9709 9.09007 9.83731
89 1 1.00843 10.707 0.651357
84 1 1.31202 10.5693 2.01388
83 1 2.10827 9.96652 3.02667
21 1 1.62068 11.8687 4.84513
96 1 0.816746 10.7432 5.33213
80 1 0.79519 9.55346 12.1695
3 1 5.29905 1.09459 1.04957
1 1 3.90569 1.38382 0.683704
5 1 3.15712 2.42433 1.50154
16 1 4.00503 0.147889 5.17888
18 1 3.72722 1.38524 5.87758
10 1 4.73479 2.00844 6.58643
24 1 5.5644 2.65585 8.85894
9 1 5.51667 2.8605 7.4485
25 1 3.26286 1.84634 9.59451
36 1 3.23501 0.878863 12.014
48 1 4.81553 4.95805 0.68937
44 1 5.58236 5.24991 2.75794
46 1 4.66843 4.48552 2.06818
8 1 3.78206 3.43004 2.34572
56 1 5.05782 5.81698 5.71246
70 1 3.14616 5.06343 8.71937
51 1 3.49518 5.83098 6.0487
57 1 3.04074 4.76249 6.9445
78 1 5.41873 4.55165 11.9082
68 1 4.20695 4.39188 9.64082
69 1 4.9576 5.31218 10.7582
27 1 4.31223 2.93606 9.48716
37 1 5.99729 3.2701 11.9419
47 1 4.91523 7.89586 2.47135
82 1 4.72399 8.62756 1.22803
92 1 4.72845 8.7507 3.5804
55 1 5.8403 7.15221 5.85313
49 1 5.69431 6.82993 2.91548
73 1 4.01174 7.60797 8.88306
62 1 5.48102 7.47078 8.223
61 1 5.59064 8.10297 6.91623
65 1 3.05956 6.6346 8.59808
72 1 5.47782 6.56755 10.4143
81 1 5.51077 7.84442 11.2195
102 1 4.08985 8.90161 9.47086
88 1 3.59707 11.4168 1.95539
85 1 3.65705 10.8012 0.540781
91 1 5.72974 9.61408 0.917128
90 1 3.42132 9.37244 0.785715
87 1 3.08434 11.1031 3.24658
94 1 5.2587 11.7713 5.22826
97 1 5.44265 10.1917 5.28331
95 1 5.73599 9.73538 3.94431
20 1 2.98518 11.8538 4.44382
93 1 5.3383 9.47412 6.53783
100 1 5.05307 10.3798 7.68434
106 1 4.88172 11.8182 8.25402
101 1 5.23343 9.6396 8.91581
33 1 3.61534 11.9516 9.08372
98 1 3.51149 11.1725 10.4397
103 1 3.41632 11.7781 11.7736
99 1 3.17399 9.75145 9.98795
114 1 9.09369 1.90881 0.0485743
2 1 6.11449 0.698898 2.00354
15 1 6.38112 0.138683 4.68617
19 1 6.41455 0.640666 3.2479
123 1 8.64261 0.838341 5.03353
121 1 7.67884 -0.190362 5.48394
26 1 6.02824 0.181983 8.65812
129 1 8.43063 0.0779264 9.51916
137 1 7.07213 0.484761 9.48626
130 1 8.39628 2.76246 11.5982
134 1 6.96589 2.70135 11.0762
35 1 6.83037 2.83819 9.68857
147 1 8.03943 4.6242 2.4503
141 1 6.82565 4.77744 3.37683
150 1 8.35924 4.01856 5.05692
156 1 7.01774 4.47268 4.76403
58 1 6.06079 4.81473 5.78455
151 1 8.43148 5.32387 7.27815
166 1 7.4129 4.52981 7.80076
23 1 6.37286 3.99345 6.98826
165 1 8.54901 4.74194 9.95222
136 1 8.85462 4.19228 11.2955
167 1 7.5634 3.98649 9.18848
171 1 7.73033 8.4911 1.43788
140 1 7.78627 7.92425 0.180317
142 1 8.13615 7.56993 2.57691
145 1 7.00863 6.70949 0.0940194
144 1 7.09331 7.30155 3.51017
148 1 6.99146 7.31567 4.95692
154 1 8.38196 7.17355 5.51971
153 1 8.34778 6.59969 6.86506
162 1 8.63721 7.67083 7.85536
184 1 8.33922 9.00682 7.4337
188 1 7.92523 8.42456 11.2906
160 1 7.87525 7.33055 9.94527
74 1 6.42548 7.00098 9.22824
169 1 6.87519 9.60942 1.77502
174 1 7.77264 10.9761 3.3482
170 1 6.77997 10.0676 3.10841
177 1 8.69582 9.68471 6.21925
178 1 8.47622 11.199 6.25477
180 1 7.78704 9.95087 8.68463
181 1 8.5696 11.1136 8.74394
185 1 9.08044 11.6933 7.47301
104 1 6.61394 9.52115 9.41116
86 1 6.03491 10.087 12.0174
110 1 6.47406 9.0992 10.9397
115 1 10.5493 1.91132 2.16311
112 1 10.1516 1.67878 0.810197
116 1 11.8018 1.16613 2.58379
111 1 9.99948 2.21198 3.45487
120 1 9.93835 1.10379 4.35594
126 1 10.941 0.252297 4.53152
127 1 10.0701 0.340303 7.80783
189 1 11.499 0.0764404 7.53163
131 1 9.62345 0.930188 9.04963
135 1 10.4512 1.97955 9.62911
132 1 11.661 2.86126 9.6455
119 1 10.1317 4.82925 1.05701
117 1 11.2321 4.50361 1.77236
139 1 9.13582 5.4956 1.92013
146 1 11.0288 4.58352 3.24965
124 1 9.703 3.91256 5.20766
128 1 10.3732 3.45609 4.02251
157 1 11.1286 5.87817 4.06142
161 1 10.4929 4.95659 8.66407
155 1 9.75962 4.79024 7.44965
125 1 10.4663 4.01151 6.34283
122 1 11.8428 3.82973 6.43037
133 1 11.7508 4.19513 9.06575
163 1 9.50258 5.61269 9.4993
113 1 9.67906 4.79025 12.1612
168 1 11.8356 7.45717 0.313013
143 1 9.27045 6.76515 2.68518
149 1 9.88556 7.79946 5.03657
138 1 10.1555 6.79152 3.7834
152 1 11.1513 7.31893 6.22161
158 1 11.1623 7.30588 10.311
164 1 10.3732 7.90232 9.38719
79 1 11.5389 6.90436 11.5666
159 1 9.1447 7.16229 9.0992
172 1 9.97548 10.4074 4.29742
173 1 10.8599 11.3388 4.94249
179 1 9.17457 10.873 3.35643
176 1 11.9381 10.8217 5.82559
175 1 9.59112 9.26882 5.14605
182 1 11.6335 9.82393 8.16606
186 1 11.6772 10.9771 7.2106
187 1 10.3064 10.0324 10.4014
190 1 11.1691 11.0748 10.4946
183 1 10.7915 9.31512 9.25737
105 1 12.1036 12.0024 10.2689
191 1 9.20222 9.36287 10.9527
ITEM: TIMESTEP
4000
ITEM: NUMBER OF ATOMS
191
ITEM: BOX BOUNDS pp pp pp
-1.5159341999602843e-01 1.2151593419996031e+01
-1.5159341999602843e-01 1.2151593419996031e+01
-1.5159341999602843e-01 1.2151593419996031e+01
ITEM: ATOMS id type x y z
4 1 1.65717 2.84165 1.56012
12 1 1.09644 0.850675 4.72809
118 1 -0.0305365 0.747038 3.858
13 1 1.14418 1.24789 6.06119
32 1 1.15022 0.678339 8.67024
11 1 0.515242 0.763569 7.25212
17 1 2.39352 2.12185 6.38822
31 1 2.65085 0.813161 8.84759
28 1 0.35534 0.838711 9.74542
29 1 0.118724 2.15164 10.205
30 1 1.27803 2.60685 10.9845
38 1 2.45078 1.84977 10.881
36 1 2.92366 0.763642 11.8122
7 1 0.0286227 4.72448 1.37273
6 1 0.72062 3.66086 0.768569
45 1 0.779476 5.71804 2.03877
14 1 2.08577 3.48222 6.68837
22 1 0.685189 3.87749 6.95513
63 1 0.53353 4.80153 8.29374
34 1 1.18566 3.90774 11.7794
64 1 1.64179 5.03892 10.893
66 1 1.62525 4.83467 9.38254
39 1 0.38935 8.24426 1.06526
42 1 1.65966 7.92617 1.55408
43 1 2.80205 8.14258 0.592908
41 1 1.68391 7.58657 2.88457
54 1 2.31366 6.60296 5.604
50 1 2.20653 8.52421 3.83489
52 1 0.914501 6.17539 5.62448
53 1 0.169384 5.99027 4.27245
40 1 0.961145 6.49461 3.12861
60 1 2.53691 7.83274 5.03578
108 1 1.24363 8.5335 8.86897
67 1 1.64971 7.20359 8.45537
71 1 0.624103 6.33812 7.83627
59 1 0.0243952 6.72607 6.66767
77 1 2.06959 6.29372 11.2034
76 1 2.19988 7.6172 11.681
75 1 1.30786 8.81585 11.2774
89 1 0.731606 10.4257 1.01081
84 1 1.21414 10.2794 2.37946
80 1 0.601944 9.2975 0.216982
83 1 2.35719 9.85502 3.17275
21 1 1.96857 11.9333 4.69223
96 1 0.974849 10.8858 5.18474
109 1 0.410086 9.16962 7.9185
107 1 1.82073 9.08661 9.96582
3 1 5.16377 1.0359 1.29013
1 1 3.6515 1.38843 0.835905
5 1 3.08874 2.40595 1.80177
16 1 4.08562 0.261129 5.16372
18 1 3.72046 1.53013 5.99646
10 1 4.81076 2.09997 6.51735
24 1 5.41756 2.80267 8.75939
9 1 5.64342 2.76418 7.42153
25 1 3.03966 1.97521 9.52491
26 1 5.88701 0.114475 9.15516
48 1 4.44074 4.89027 0.708711
8 1 3.92402 3.39042 2.48708
46 1 4.43815 4.58538 2.06459
44 1 5.46761 5.30044 2.86871
56 1 4.93794 5.80503 5.75039
58 1 5.83877 4.59758 5.75006
51 1 3.59087 5.60035 5.90914
70 1 3.1349 5.1511 8.48271
57 1 2.9442 4.6621 6.98342
78 1 5.156 4.53004 11.7779
68 1 4.0277 4.5226 9.50105
69 1 4.98854 5.22833 10.4733
27 1 4.07853 3.00868 9.40532
37 1 6.06914 3.42522 11.9083
47 1 5.02592 7.9624 2.58074
82 1 5.04446 8.67565 1.32796
49 1 5.65359 6.70616 2.88533
90 1 3.82449 9.10136 0.633961
55 1 5.70841 7.05853 5.80253
92 1 5.09229 8.78863 3.71773
73 1 4.07045 7.64605 8.72739
62 1 5.56885 7.45448 8.08206
61 1 5.63715 7.99757 6.88461
65 1 2.98653 6.64966 8.63253
72 1 5.67424 6.56275 10.3675
81 1 5.62221 7.67821 11.3303
102 1 4.17865 8.98802 9.3596
88 1 3.71164 11.0841 1.83523
85 1 3.46684 10.5309 0.516534
20 1 3.22709 11.8332 4.30384
94 1 5.46863 11.9185 5.1962
97 1 5.79674 10.3688 5.22536
87 1 3.377 10.8187 3.21528
93 1 5.63235 9.64683 6.54531
100 1 5.22716 10.5862 7.74962
106 1 4.86906 11.7852 8.50778
101 1 5.36189 9.61365 8.88255
98 1 3.15174 11.0661 10.2386
99 1 3.05774 9.71765 9.76202
103 1 3.17682 11.5278 11.7029
33 1 3.48784 12.084 9.07442
2 1 6.03755 1.2601 2.21522
15 1 6.69733 0.119474 4.66975
19 1 6.45508 0.984159 3.53993
123 1 8.77918 1.0668 5.03151
121 1 7.94485 -0.0841038 5.33557
129 1 8.43126 0.0423078 9.42307
137 1 7.0865 0.544186 9.59431
134 1 7.03339 2.98017 11.0698
147 1 7.50708 4.36131 2.35021
139 1 8.77294 4.97147 2.13852
141 1 6.48352 4.45191 3.30597
150 1 8.07794 4.06037 4.981
156 1 6.67204 4.16135 4.69384
151 1 8.44571 5.22757 7.10606
166 1 7.40236 4.53295 7.68887
23 1 6.30784 3.99427 6.93782
167 1 7.50078 4.17541 9.04429
165 1 8.48401 4.76679 9.87223
35 1 6.65798 3.07079 9.58077
136 1 9.04235 4.20095 11.1314
130 1 8.38814 3.01079 11.3612
171 1 7.89175 8.04833 1.58312
142 1 8.01552 7.24198 2.69689
140 1 8.41967 7.36755 0.100251
143 1 9.01657 6.22984 2.99276
144 1 6.88051 6.92407 3.52094
148 1 6.87917 7.12433 4.91772
154 1 8.17199 7.15563 5.62463
153 1 8.34347 6.72551 6.86084
162 1 8.63551 7.69332 7.81672
184 1 8.31117 9.16655 7.52058
188 1 8.07828 8.27289 11.1874
160 1 7.99367 7.40516 9.96753
74 1 6.52187 7.22705 9.32651
169 1 7.18085 9.17316 1.8685
91 1 6.14075 9.54221 1.00094
95 1 6.02799 9.68551 4.10967
174 1 8.15573 10.779 3.03048
170 1 7.19825 9.83811 3.09446
180 1 7.80902 9.96833 8.57872
181 1 8.52356 11.1678 8.58251
178 1 8.53752 11.2611 6.25307
177 1 8.63263 9.81105 6.16624
104 1 6.66728 9.68712 9.49537
86 1 6.39304 10.0078 12.0157
110 1 6.77307 9.04956 10.9668
115 1 10.7836 1.88117 2.08828
112 1 9.99367 1.82818 0.810003
116 1 11.9882 1.42451 2.58701
114 1 9.03561 2.0629 -0.215673
111 1 10.1236 2.21927 3.32541
120 1 10.0214 1.30079 4.38524
126 1 10.9757 0.276537 4.43353
127 1 10.0611 0.598559 7.64325
189 1 11.4844 0.169796 7.38687
131 1 9.57213 1.23725 8.88579
135 1 10.2353 2.42652 9.3754
119 1 9.79155 4.64717 1.22313
117 1 11.0266 4.5452 1.92758
113 1 9.62289 5.07988 -0.0810309
146 1 11.0192 4.53218 3.33912
124 1 9.44525 3.78912 5.11597
128 1 10.1767 3.51982 3.82697
157 1 11.0464 5.78421 4.07835
161 1 10.4775 4.95584 8.4599
155 1 9.90221 4.76996 7.14508
125 1 10.3801 4.06803 6.08433
122 1 11.7419 3.62218 6.26229
163 1 9.46593 5.67473 9.15915
132 1 11.4876 2.94495 9.61659
133 1 11.6172 4.43368 8.94991
168 1 11.6942 7.37929 0.631801
149 1 9.38321 7.57571 5.01367
138 1 9.96539 6.56751 4.03872
152 1 11.2669 7.56674 6.38262
158 1 11.1823 7.39668 10.6312
164 1 10.3677 7.90224 9.50495
79 1 10.8082 7.10858 11.9043
145 1 9.50743 6.45365 12.1977
159 1 9.21621 7.10803 8.99895
172 1 10.162 10.2495 4.32032
173 1 10.9945 11.2183 4.87213
179 1 9.45321 10.597 3.0881
176 1 12.0135 10.7391 5.75525
175 1 9.45742 9.22638 5.10693
182 1 11.4458 9.94665 8.03459
186 1 11.6038 10.9876 7.05348
185 1 9.18341 11.7333 7.40187
187 1 10.2065 10.0936 10.3476
190 1 10.8917 11.3033 10.836
191 1 9.08447 9.49184 11.1336
105 1 11.8964 12.1391 10.406
183 1 10.6667 9.43638 9.23167
ITEM: TIMESTEP
5000
ITEM: NUMBER OF ATOMS
191
ITEM: BOX BOUNDS pp pp pp
-8.5737596971330446e-02 1.2085737596971310e+01
-8.5737596971330446e-02 1.2085737596971310e+01
-8.5737596971330446e-02 1.2085737596971310e+01
ITEM: ATOMS id type x y z
4 1 1.66043 2.68435 1.39759
12 1 1.09223 0.76422 5.02471
118 1 0.0937397 0.820698 4.03157
17 1 2.65335 2.11388 6.45199
32 1 1.4211 0.819796 8.58058
11 1 0.646435 0.798872 7.28032
31 1 2.84616 0.94092 8.92322
13 1 1.39292 1.39512 6.25707
28 1 0.493337 0.993304 9.72326
29 1 0.414257 2.33102 10.1782
30 1 1.55619 2.75069 10.8537
38 1 2.75042 1.96666 10.9222
7 1 0.252878 4.6727 1.42928
6 1 1.04785 3.78722 0.727925
45 1 1.07336 5.57744 1.94133
14 1 2.28982 3.50618 6.84384
22 1 0.938727 3.91097 7.00308
63 1 0.643916 4.66792 8.24665
34 1 1.27771 3.98376 11.54
64 1 1.54131 5.10945 10.5751
66 1 1.68962 4.83708 9.19994
39 1 0.456763 8.09386 0.974931
42 1 1.72292 7.88375 1.52708
43 1 2.7213 8.13288 0.579525
41 1 1.87293 7.49433 2.83732
54 1 2.49275 6.61211 5.56239
50 1 2.34472 8.57205 3.70085
53 1 0.415421 6.06248 4.1733
52 1 0.983615 6.34198 5.43479
40 1 1.14072 6.39809 3.06543
60 1 2.63074 7.96243 5.08837
108 1 1.2975 8.49036 8.60908
67 1 1.72327 7.09713 8.39722
71 1 0.625307 6.19691 7.7354
59 1 0.0668791 6.74363 6.50505
109 1 0.19382 8.95968 7.69027
77 1 1.8014 6.40666 11.1683
76 1 2.0979 7.75226 11.4455
75 1 1.17863 8.79098 10.9884
89 1 0.505537 10.5318 0.986617
84 1 1.08075 10.4128 2.30265
80 1 0.557142 9.32285 0.0906406
96 1 1.11617 10.4211 5.34827
21 1 1.824 11.705 4.96418
83 1 2.09501 9.92865 3.149
107 1 1.65418 9.10643 9.76528
3 1 4.25237 0.446737 1.83751
1 1 3.64015 1.37062 1.0609
2 1 5.46604 0.81756 2.53448
5 1 2.9922 2.53822 1.58652
16 1 4.12972 0.0175298 5.56882
10 1 4.95364 1.99739 6.61367
26 1 5.8679 0.321899 8.74287
24 1 5.59385 2.6708 8.79763
9 1 5.80672 2.78847 7.40214
18 1 3.93275 1.29891 6.30219
25 1 3.43324 2.02802 9.61655
36 1 3.20652 0.947334 11.8092
48 1 4.3538 5.13021 0.615626
8 1 3.6944 3.48359 2.18708
46 1 4.50029 4.68202 1.91698
44 1 5.41186 5.32032 2.77258
56 1 4.9326 5.70267 5.76261
51 1 3.40555 5.59584 6.07618
57 1 3.08877 4.68695 7.2108
70 1 3.07084 5.19894 8.66959
78 1 5.05945 4.65182 11.7805
68 1 4.08539 4.55024 9.52713
69 1 4.94237 5.33468 10.4653
37 1 5.74396 3.36827 11.9759
27 1 4.21161 3.13882 9.27692
47 1 4.84545 7.96999 2.65975
82 1 4.82939 8.89888 1.33104
49 1 5.47217 6.79018 2.96807
55 1 5.71698 7.06216 5.7159
92 1 4.89548 8.86276 3.63405
73 1 4.14703 7.69043 8.90651
62 1 5.53098 7.41286 8.18574
61 1 5.42306 7.9612 6.72632
65 1 3.03432 6.69517 8.7013
72 1 5.75033 6.616 10.3233
81 1 5.74227 7.72623 11.1158
102 1 4.07333 9.07473 9.29248
88 1 3.76724 11.3374 2.04608
85 1 3.32718 10.6618 0.691526
90 1 3.56522 9.22257 0.702186
20 1 3.1942 11.5936 4.55215
94 1 5.44301 11.6273 5.37435
97 1 5.72716 10.1424 5.32749
87 1 3.3608 10.8438 3.28857
93 1 5.36881 9.54964 6.59947
100 1 5.01121 10.4555 7.79241
106 1 4.70593 11.7824 8.25539
101 1 5.24755 9.74697 9.08138
98 1 3.34132 11.1623 10.2515
103 1 3.27808 11.5529 11.7326
99 1 2.98677 9.72272 9.88045
33 1 3.56465 11.9449 9.15961
15 1 6.63684 0.184137 4.80229
19 1 6.47634 0.762146 3.49819
123 1 8.78026 1.17549 5.29955
121 1 7.94962 0.0320238 5.44267
129 1 8.32799 0.295129 9.29085
137 1 6.96874 0.618452 9.5184
134 1 6.83534 2.89644 11.0404
147 1 7.75417 4.39176 2.56974
139 1 8.76998 5.13727 2.15568
141 1 6.52197 4.3243 3.24006
150 1 8.12411 3.49698 5.04363
156 1 6.89614 4.19589 4.67256
58 1 6.05672 4.64422 5.79581
151 1 8.57315 5.37585 7.04255
166 1 7.64051 4.38293 7.61543
23 1 6.44277 3.92897 6.9641
167 1 7.67235 3.99123 9.04453
165 1 8.51383 4.88823 9.82562
130 1 8.18272 3.10334 11.5758
136 1 8.80932 4.40862 11.1042
35 1 6.72597 3.1762 9.65123
171 1 7.86394 8.03119 1.58573
142 1 7.93296 7.28375 2.78585
140 1 8.306 7.61147 0.182763
143 1 8.99172 6.29103 2.92032
144 1 6.80356 7.14377 3.50934
148 1 6.77401 7.10613 4.90906
154 1 8.04435 7.16472 5.4542
153 1 8.43349 6.7322 6.71838
162 1 8.71458 7.72159 7.70393
188 1 8.10342 8.46373 11.1125
160 1 7.94657 7.48803 9.89631
74 1 6.69251 6.98639 9.25368
169 1 7.17315 9.21249 1.88716
91 1 6.0783 9.47572 1.11177
174 1 8.09746 10.603 3.34898
170 1 7.07453 9.6172 3.24261
95 1 6.07543 9.45209 4.2355
180 1 7.77193 9.98113 8.54874
181 1 8.30951 11.2335 8.56127
178 1 8.60368 11.1587 6.13052
177 1 8.77933 9.73887 6.03527
184 1 8.21963 9.0522 7.47815
104 1 6.61416 9.71396 9.48216
86 1 6.51338 9.94422 12.1188
110 1 6.71482 9.10674 10.9715
115 1 10.6792 1.5089 2.13102
112 1 9.86955 1.36901 0.946004
116 1 12.0128 1.17865 2.64326
114 1 9.17346 2.10237 -0.0152212
111 1 9.96416 2.15206 3.4289
120 1 9.88894 1.19385 4.48486
126 1 10.9621 0.253319 4.49744
127 1 10.1959 0.548108 7.73805
189 1 11.5256 0.23421 7.20603
131 1 9.5304 1.17426 8.8695
135 1 10.1702 2.28807 9.52455
105 1 11.9087 -0.0350762 10.2609
119 1 9.66683 4.68122 1.17732
117 1 10.974 4.54366 1.75447
113 1 9.25046 5.18749 -0.0535544
146 1 10.8724 4.53926 3.21313
124 1 9.53504 3.81243 5.07682
128 1 10.1949 3.46693 3.84944
157 1 11.1855 5.80306 4.03437
161 1 10.395 5.02335 8.38837
155 1 9.94922 4.85456 7.12409
125 1 10.4785 4.16099 6.10355
122 1 11.8693 3.71862 6.20765
133 1 11.5133 4.20508 8.74032
163 1 9.46319 5.7641 9.14538
132 1 11.4229 3.02144 9.56591
168 1 11.5219 7.2797 0.910792
149 1 9.22394 7.63545 4.82484
138 1 9.97536 6.73901 3.90328
159 1 9.08834 7.25735 9.03582
152 1 11.9208 8.16886 6.51478
158 1 11.1845 7.60267 10.5037
164 1 10.3748 8.16119 9.28108
79 1 10.6808 7.11199 11.8613
145 1 9.41343 6.6568 12.0347
172 1 10.2384 9.96817 4.13774
173 1 10.9762 10.9733 4.7393
179 1 9.42299 10.3461 3.06923
175 1 9.53937 9.15386 5.11856
176 1 11.8927 10.6248 5.77475
182 1 11.4582 9.95001 7.98685
186 1 11.6189 10.9259 7.04912
185 1 9.06863 11.5939 7.38244
187 1 10.2021 10.2504 10.3269
190 1 10.8853 11.3577 10.7395
183 1 10.5802 9.59178 9.0266
191 1 9.22334 9.52671 11.1271
ITEM: TIMESTEP
6000
ITEM: NUMBER OF ATOMS
191
ITEM: BOX BOUNDS pp pp pp
-1.1243247169147229e-01 1.2112432471691436e+01
-1.1243247169147229e-01 1.2112432471691436e+01
-1.1243247169147229e-01 1.2112432471691436e+01
ITEM: ATOMS id type x y z
116 1 -0.00470084 1.13144 2.64463
4 1 1.60778 2.76435 1.57728
12 1 1.05923 0.618827 5.01122
118 1 0.0692234 0.567137 3.98298
31 1 2.66625 0.956516 8.94093
32 1 1.23915 0.972069 8.71101
11 1 0.444728 0.827919 7.34047
17 1 2.42605 2.06918 6.47795
13 1 1.22909 1.28065 6.286
28 1 0.572175 1.07659 9.88062
29 1 0.396427 2.32685 10.3029
30 1 1.55359 2.73391 11.0676
38 1 2.77556 1.86934 10.9869
7 1 0.0521367 4.54209 1.30867
6 1 1.07629 3.87629 0.779148
45 1 0.651732 5.66018 1.90469