ITEM: TIMESTEP
1000
ITEM: NUMBER OF ATOMS
191
ITEM: BOX BOUNDS pp pp pp
0.0000000000000000e+00 1.2000000000000000e+01
0.0000000000000000e+00 1.2000000000000000e+01
0.0000000000000000e+00 1.2000000000000000e+01
ITEM: ATOMS id type x y z
12 1 1.20509 0.848646 4.8824
1 1 2.45416 2.21262 3.44646
118 1 0.0568909 0.931156 4.21542
31 1 2.7963 1.20012 8.59879
32 1 1.33362 1.11411 8.47168
11 1 0.524598 1.20419 7.34151
17 1 2.71238 2.40746 6.16634
13 1 1.38231 1.67759 6.10224
28 1 0.600435 1.06936 9.68613
29 1 0.380463 2.49177 10.0643
30 1 1.54051 2.88833 10.6729
38 1 2.76966 2.1392 10.5977
4 1 2.18611 3.42645 1.49308
6 1 1.37529 4.1638 0.681185
7 1 0.316389 4.7799 1.23673
5 1 2.72351 3.38718 2.80547
53 1 0.358511 5.83537 4.1516
14 1 2.48962 3.77126 6.47623
22 1 1.04066 4.12647 6.92577
63 1 0.861504 4.89394 8.19573
34 1 1.60511 4.1806 11.3394
64 1 1.84804 5.17285 10.4568
66 1 1.97643 4.87993 9.13738
39 1 0.181589 8.50532 0.712513
43 1 2.65505 8.15867 0.868042
42 1 1.41328 7.99508 1.5577
45 1 0.410238 6.0196 1.6437
40 1 0.607622 6.50916 2.98891
41 1 1.37971 7.70322 2.91852
54 1 2.3679 6.52629 5.21292
50 1 2.14686 8.46843 3.69532
52 1 1.04645 6.21113 5.25484
60 1 2.43505 7.90596 4.88676
59 1 0.319578 6.54721 6.41356
67 1 1.82448 7.31926 8.10585
71 1 0.824954 6.39916 7.65354
108 1 1.50378 8.72625 8.5489
75 1 1.63839 8.73584 10.9
76 1 2.39605 7.75422 11.4558
77 1 2.36185 6.3648 11.1126
89 1 1.68557 10.4378 0.778156
84 1 1.26087 10.293 2.26055
96 1 1.39937 10.5244 5.80047
21 1 1.92503 11.6793 5.0829
83 1 1.97272 9.86486 3.45811
109 1 0.460584 9.13924 7.92927
107 1 1.96788 9.23301 9.68906
80 1 0.964113 9.47731 11.8748
3 1 3.46182 1.23958 3.5408
16 1 4.12741 0.164967 5.50129
2 1 4.94593 1.47411 3.18049
9 1 5.79569 2.82726 7.153
24 1 5.70492 2.43076 8.65892
26 1 5.83625 0.933983 8.58776
10 1 5.33926 2.06308 6.16372
18 1 3.95423 1.52412 6.0336
25 1 3.47206 2.22466 9.36298
36 1 3.1563 1.05003 11.3995
48 1 4.33373 4.65548 0.709691
44 1 5.99016 5.22315 2.44868
46 1 4.83482 4.57961 2.03733
8 1 3.91788 4.06314 2.96916
58 1 5.89245 4.77236 5.62939
56 1 5.05263 5.94244 5.47293
51 1 3.61934 5.79543 5.77172
70 1 3.40603 5.25056 8.37877
57 1 3.29911 4.88631 6.83742
78 1 5.12797 4.29346 11.5245
68 1 4.40579 4.42649 9.42396
69 1 5.059 5.21573 10.3426
27 1 4.47806 3.0505 9.22505
47 1 5.19546 7.94796 2.43487
82 1 4.90455 8.78538 1.39948
92 1 5.0144 8.61295 3.70179
55 1 5.95341 7.18716 5.53858
73 1 4.19161 7.74413 8.55678
62 1 5.53684 7.49362 7.95057
65 1 3.19209 6.8109 8.4114
61 1 5.63671 8.06901 6.60218
72 1 5.55993 6.5066 10.3029
81 1 5.54413 7.76087 11.0694
88 1 3.49987 11.0428 2.1632
85 1 3.16455 10.4098 1.00517
91 1 5.91697 9.71594 1.04399
90 1 3.67653 9.11918 1.0001
94 1 5.51007 11.7138 5.47563
97 1 5.54044 10.2859 5.25334
87 1 3.11333 10.7168 3.43176
20 1 3.18504 11.8843 4.2963
95 1 5.89847 9.73487 4.04418
93 1 5.64775 9.60237 6.45837
100 1 5.39615 10.4731 7.59658
101 1 5.51693 9.71445 8.84227
106 1 4.93343 11.8978 7.96221
33 1 3.59975 11.9983 8.55921
98 1 3.50555 11.1841 9.68144
103 1 3.22428 11.7935 10.9441
99 1 3.27887 9.79207 9.59418
102 1 4.32834 9.07969 9.01661
114 1 8.60925 1.0636 0.341457
15 1 6.28686 1.03729 5.36838
19 1 6.14573 1.31933 3.9212
121 1 7.76238 0.614062 5.91285
128 1 8.88866 2.97665 3.70562
129 1 8.35478 0.18746 9.37563
130 1 8.26103 2.13424 11.4211
137 1 7.02759 0.504277 9.32774
134 1 6.96563 2.54662 10.8961
35 1 6.87822 2.8466 9.43909
147 1 8.12484 3.78741 2.81579
139 1 8.95702 4.71955 2.11283
141 1 6.86754 4.534 3.29409
150 1 8.14886 4.52859 5.47536
156 1 6.87198 4.6036 4.71775
151 1 8.27125 5.07366 6.80782
166 1 7.22697 4.60737 7.64401
23 1 6.11789 4.13615 6.99852
167 1 7.57641 4.01855 8.90824
165 1 8.33637 4.89564 9.7276
37 1 6.09022 3.28999 11.648
49 1 6.32647 6.66491 2.15676
140 1 7.99375 7.68454 0.383597
142 1 8.58072 7.38481 2.5869
145 1 6.96274 6.67636 0.681379
171 1 8.11027 8.45739 1.63405
144 1 7.31434 7.04926 3.2988
148 1 7.18411 7.1601 4.73754
154 1 8.35935 7.1502 5.53352
153 1 8.1698 6.55922 6.73473
162 1 8.58165 7.49694 7.74916
184 1 8.14193 8.93666 7.51019
188 1 7.99517 8.26872 11.0671
74 1 6.48352 6.90777 9.14608
160 1 7.81743 7.2395 9.89896
169 1 7.09657 9.53003 1.87342
174 1 7.97704 10.9841 3.56656
170 1 6.93637 10.1165 3.21665
177 1 8.34338 9.55504 6.12299
178 1 8.10362 11.1346 6.34415
180 1 7.89147 9.70405 8.60484
181 1 8.60636 10.9521 8.71045
185 1 8.91145 11.4014 7.40967
104 1 6.73251 9.58153 9.41521
110 1 6.49943 9.08283 10.8292
86 1 6.07477 10.1283 11.7812
115 1 10.3233 1.23323 2.44296
116 1 11.6482 0.993539 2.82226
112 1 9.70433 1.22206 1.2498
111 1 9.4857 1.66562 3.53701
126 1 10.9251 0.207048 4.75638
120 1 9.76984 1.11383 4.82804
123 1 9.07273 1.35593 5.95414
127 1 9.85358 0.871564 7.35898
189 1 11.3665 0.497339 7.24559
131 1 9.26943 1.27343 8.8753
135 1 9.92736 2.45712 9.72437
136 1 9.31994 2.91918 10.9834
105 1 11.8296 0.0101488 10.1355
119 1 10.0568 4.12402 1.1601
117 1 11.2913 4.10232 1.87838
157 1 11.3328 4.9189 4.17809
124 1 9.18021 3.70881 5.01453
146 1 11.3855 3.97031 3.30822
138 1 10.2186 5.74187 3.89366
161 1 10.2777 4.94223 8.31128
155 1 9.72347 4.77316 7.05922
133 1 11.4486 4.36918 8.8939
122 1 11.7791 3.7662 6.22739
125 1 10.4313 4.01175 6.05778
163 1 9.44619 5.61201 9.18789
113 1 9.86272 3.82653 11.855
132 1 11.2015 3.12199 9.46298
143 1 9.41135 6.11047 2.82495
168 1 11.139 7.60473 0.563201
149 1 9.69535 7.6531 5.41856
152 1 10.827 7.13612 6.19421
159 1 9.168 7.09184 8.9772
158 1 11.2905 7.02504 10.2119
164 1 10.4181 7.84684 9.49228
79 1 11.2299 6.74242 11.5198
172 1 10.0074 10.0659 4.56232
173 1 11.0291 10.7553 5.07982
175 1 9.42791 9.05859 5.30838
179 1 9.28849 10.6904 3.58403
182 1 11.2861 9.8532 8.11419
186 1 11.4828 11.032 7.29613
176 1 11.9937 10.5963 6.03074
187 1 10.2157 9.88624 10.5578
190 1 10.9942 11.1135 10.7664
183 1 10.5117 9.3033 9.2034
191 1 9.03 9.33326 11.045
ITEM: TIMESTEP
2000
ITEM: NUMBER OF ATOMS
191
ITEM: BOX BOUNDS pp pp pp
-1.1197935849364281e-01 1.2111979358493626e+01
-1.1197935849364281e-01 1.2111979358493626e+01
-1.1197935849364281e-01 1.2111979358493626e+01
ITEM: ATOMS id type x y z
4 1 1.60299 2.90516 1.50955
5 1 2.8221 2.7984 2.17723
12 1 1.15896 0.684271 4.78239
118 1 0.162043 0.441997 3.87073
13 1 1.28967 1.47709 6.02873
31 1 2.68454 0.977517 8.76959
32 1 1.27566 0.804123 8.51407
11 1 0.637095 0.905187 7.2549
17 1 2.60532 2.07138 6.13383
28 1 0.306397 0.969717 9.61576
29 1 0.241 2.3364 10.2362
30 1 1.34487 2.78767 10.9663
38 1 2.54749 1.97157 10.8218
36 1 2.85012 0.790954 11.6709
7 1 0.345431 4.91191 1.39357
6 1 1.03091 3.91633 0.725555
45 1 0.815954 6.04302 2.00822
14 1 2.24576 3.57671 6.6739
22 1 0.818171 3.83576 7.10268
63 1 0.735698 4.64886 8.38716
34 1 1.26102 4.03081 11.5502
64 1 1.6975 5.07968 10.6378
66 1 1.86883 4.73474 9.1762
39 1 0.0754133 8.87863 0.88231
43 1 2.36261 8.18148 0.756087
42 1 1.18057 8.23386 1.6986
54 1 2.38627 6.64349 5.5303
50 1 2.13061 8.79927 3.89271
52 1 0.892693 6.4082 5.65427
40 1 0.812512 6.65947 3.20577
60 1 2.59589 7.95352 5.07908
53 1 0.257411 6.07367 4.30405
41 1 1.49813 7.87883 2.97837
108 1 1.36851 8.58927 8.59957
67 1 1.70995 7.22237 8.25949
71 1 0.562341 6.34921 7.88992
59 1 -0.0226621 6.63582 6.70415
77 1 1.94577 6.34018 11.26
76 1 1.78327 7.83384 11.6527
75 1 1.20186 8.93899 11.0766
89 1 1.52241 10.7562 0.666376
84 1 1.3876 10.7074 2.17224
80 1 0.66516 9.85567 -0.0530549
83 1 2.36268 10.0051 3.29612
21 1 1.91791 11.6827 5.11009
96 1 1.1119 10.5235 5.49743
109 1 0.257436 9.10402 8.0004
107 1 1.74388 9.30258 9.81469
3 1 5.11369 1.43003 1.91318
1 1 3.87896 1.96539 2.01418
16 1 4.15989 0.0647576 5.43588
18 1 3.93744 1.3855 5.80377
10 1 5.02419 2.02271 6.36479
24 1 5.60017 2.40121 8.82563
26 1 5.80485 0.908675 8.98036
25 1 3.18591 2.09541 9.58154
48 1 4.13355 5.00401 0.47896
44 1 5.52825 5.23103 2.61004
46 1 4.39404 4.7106 1.8685
8 1 3.27138 4.07088 2.51427
56 1 4.94017 5.7846 5.65618
51 1 3.42045 5.8477 5.9371
58 1 5.85079 4.53038 5.78245
70 1 3.17575 5.1856 8.51925
57 1 3.03928 4.79981 7.01977
9 1 5.63308 2.95454 7.36451
78 1 4.83116 4.69399 11.5629
68 1 4.21066 4.37962 9.23085
69 1 4.86955 5.25034 10.2445
37 1 5.72511 3.57519 11.7762
27 1 4.23566 2.99867 9.32036
47 1 4.93491 7.67414 2.61977
82 1 4.60728 8.57382 1.47606
49 1 5.77002 6.55662 2.7707
90 1 3.40715 8.97367 0.952134
92 1 4.86935 8.58242 3.87324
55 1 5.7044 7.08187 5.59246
73 1 4.17867 7.68244 8.61003
62 1 5.53318 7.5166 8.04589
61 1 5.72302 8.10438 6.68567
65 1 3.07843 6.72252 8.40734
72 1 5.50876 6.46153 10.0467
81 1 5.56756 7.67533 10.8688
102 1 4.15336 8.98274 9.32431
88 1 3.60552 11.3592 2.07876
85 1 3.01224 10.7704 0.397111
91 1 5.79821 9.35451 1.03873
94 1 5.53282 11.7182 5.35753
20 1 3.22298 11.6369 4.61473
97 1 5.66292 10.3786 5.53353
87 1 3.40064 10.9722 3.39409
95 1 5.85568 9.53696 4.35745
93 1 5.42263 9.69143 6.67566
100 1 5.24626 10.7515 7.84962
106 1 4.89101 12.1686 8.44629
101 1 5.40791 9.76902 9.02765
99 1 3.12604 9.77553 9.87791
98 1 3.24495 11.1559 10.1437
103 1 3.26866 11.6772 11.4766
86 1 5.93056 9.86608 11.9648
33 1 3.47177 12.1128 9.0879
114 1 8.71003 1.73686 0.351583
2 1 6.20449 1.36812 2.67537
15 1 6.97462 0.104317 4.81104
19 1 6.84877 0.647566 3.56846
121 1 8.29258 -0.0890733 5.56669
129 1 8.20071 0.498152 9.42143
130 1 8.19135 2.51383 11.4278
137 1 6.81492 0.541125 9.98927
134 1 6.68866 2.78374 11.0385
147 1 7.71369 4.15764 2.30094
139 1 9.0119 4.81281 2.13091
141 1 6.51888 4.27893 3.27631
150 1 8.22046 3.71451 4.92626
156 1 6.8761 4.19407 4.69786
151 1 8.44698 5.2339 6.92324
166 1 7.48287 4.59043 7.69902
23 1 6.24261 4.20985 7.0061
165 1 8.73298 4.49465 9.86701
35 1 6.64399 3.02579 9.62665
167 1 7.58282 4.0764 9.08089
171 1 7.95125 8.16929 1.57348
140 1 8.18106 7.72381 0.26759
142 1 8.18011 7.27296 2.56641
145 1 8.87848 6.62495 0.118543
144 1 7.04715 6.80079 3.49824
148 1 7.06033 6.91086 4.91586
154 1 8.29335 6.97329 5.51938
153 1 8.3783 6.64696 6.821
162 1 8.63075 7.65211 7.72252
184 1 8.52824 8.99869 7.53931
188 1 7.83813 8.24888 11.1194
160 1 7.79139 7.22977 9.78519
74 1 6.46186 6.81431 9.03968
110 1 6.50709 8.97013 10.9539
169 1 6.93189 9.14647 1.81837
174 1 8.07677 10.7621 3.18934
170 1 6.99498 9.81375 3.18321
177 1 9.02395 9.58388 6.33825
178 1 8.86996 11.0174 6.34527
180 1 7.7638 9.95377 8.67893
181 1 8.37383 11.3781 8.69839
104 1 6.6854 9.60968 9.59717
191 1 8.93886 9.39769 10.9412
115 1 10.7388 1.39873 2.0782
112 1 9.88691 1.33702 1.01015
116 1 12.077 0.988095 2.53844
111 1 10.1521 1.99333 3.33855
126 1 11.1662 0.0539445 4.41444
120 1 10.1695 1.03984 4.38088
123 1 9.18369 0.950781 5.3237
127 1 10.0935 0.619902 7.73133
189 1 11.5226 0.281642 7.43141
131 1 9.38673 1.31279 9.00735
135 1 10.0714 2.43686 9.7517
105 1 11.6783 0.0197593 10.1963
119 1 9.9491 4.31049 1.23225
117 1 11.2975 4.45205 1.82187
157 1 11.1508 5.58692 3.94788
124 1 9.69298 3.70449 5.02233
128 1 10.4562 3.2578 3.9503
146 1 11.1813 4.26029 3.34627
161 1 10.4699 5.07703 8.40634
155 1 9.8412 4.85771 7.01307
122 1 11.8683 3.73379 6.45085
125 1 10.5988 4.03053 6.1382
133 1 11.5061 4.46093 8.99804
163 1 9.50437 5.57409 9.3065
136 1 9.26936 3.24941 10.7641
113 1 9.77528 4.09484 12.0894
132 1 11.3273 3.03429 9.57595
143 1 9.12146 6.18773 2.84476
168 1 11.1715 8.09424 0.429687
149 1 9.78251 7.47681 5.13973
138 1 10.0286 6.4512 3.91799
175 1 9.71322 9.00736 5.15525
152 1 11.0034 7.19267 6.23884
159 1 9.03281 7.09592 9.04068
158 1 11.2424 7.51519 10.1957
164 1 10.3468 7.83739 9.19066
79 1 10.9238 7.44073 11.5591
172 1 10.2395 10.0376 4.31267
173 1 11.1625 10.8632 4.76957
179 1 9.38846 10.5165 3.46127
176 1 11.9847 10.6947 5.88207
182 1 11.4785 9.97462 8.10897
186 1 11.6799 11.0654 7.27804
185 1 9.3565 11.6075 7.56906
183 1 10.53 9.34317 8.86894
187 1 10.0099 10.1152 10.1368
190 1 10.7257 11.3358 10.3076
ITEM: TIMESTEP
3000
ITEM: NUMBER OF ATOMS
191
ITEM: BOX BOUNDS pp pp pp
-2.1958098375701085e-01 1.2219580983756986e+01
-2.1958098375701085e-01 1.2219580983756986e+01
-2.1958098375701085e-01 1.2219580983756986e+01
ITEM: ATOMS id type x y z
12 1 0.919557 0.707563 4.768
118 1 -0.123592 0.559509 3.73183
31 1 2.66176 0.714295 8.76703
32 1 1.19325 0.769122 8.39181
11 1 0.420233 0.914647 7.17816
13 1 1.08051 1.37591 6.01414
17 1 2.40595 2.15476 6.18451
28 1 0.322988 0.900052 9.45557
29 1 0.200668 2.20801 10.0045
30 1 1.28534 2.67652 10.8679
38 1 2.40148 1.7092 11.0188
36 1 2.7233 0.405185 11.804
7 1 0.183002 4.73746 1.2748
6 1 1.01881 3.88529 0.355809
45 1 0.951129 5.42427 2.11649
4 1 1.73964 2.98619 1.10636
5 1 2.92979 3.0288 1.86352
14 1 2.08393 3.63435 6.54007
22 1 0.749406 3.76215 6.39644
63 1 0.337983 5.17901 8.87904
57 1 2.86778 4.92787 6.77378
34 1 1.39911 3.96208 11.4717
64 1 1.84272 5.04838 10.7173
66 1 1.64629 4.82288 9.31871
39 1 0.210968 7.85137 0.356703
43 1 2.4723 8.29675 0.411997
42 1 1.34168 7.67838 1.20562
41 1 1.26953 7.69047 2.58341
54 1 2.49325 6.99814 5.40589
50 1 1.71736 8.82631 3.55356
52 1 0.871183 6.53861 5.50196
53 1 0.285645 6.15866 4.17496
40 1 1.07941 6.43073 3.06381
60 1 2.75923 8.03326 4.37085
108 1 1.39343 8.50785 8.55615
67 1 1.69424 7.13193 8.37507
59 1 0.0423946 6.67369 6.69476
71 1 0.637439 6.38427 7.92952
75 1 1.14957 8.73033 10.9021
76 1 2.1702 7.7323 11.4288
77 1 2.14482 6.40014 11.0275
80 1 0.262815 9.0557 12.0163
89 1 0.152156 10.1433 0.690695
84 1 0.647353 10.2 1.91359
96 1 1.17039 10.9002 5.61321
21 1 1.7509 11.9616 4.86052
87 1 2.68977 11.2498 2.92426
83 1 1.57001 10.2004 3.01279
109 1 0.302418 9.03684 7.84048
107 1 1.8504 9.19945 9.64434
3 1 4.93032 1.66473 1.97226
1 1 3.60585 1.86942 2.06309
16 1 4.08651 0.123918 5.02079
18 1 3.59634 1.39789 5.85377
10 1 4.81846 1.79657 6.51851
9 1 5.75022 2.73903 6.89445
25 1 3.04685 1.91521 9.68375
27 1 4.18281 2.67181 9.27831
26 1 5.77211 0.689799 9.25064
24 1 5.53065 2.15911 9.23315
48 1 4.91396 4.91906 0.379659
8 1 3.54744 4.259 2.06859
46 1 4.71341 4.94971 1.83855
44 1 5.61166 5.42718 2.69109
58 1 5.87867 4.82176 5.63506
56 1 4.95607 5.97659 5.61862
51 1 3.47189 6.00169 5.8128
70 1 3.10314 5.08576 8.45206
78 1 5.13916 4.19605 11.6462
68 1 4.13412 4.12542 9.23838
69 1 4.98559 4.71646 10.3049
37 1 5.88911 2.99559 11.8572
72 1 5.65264 6.1088 10.1675
47 1 4.6141 7.74647 2.59482
82 1 4.66383 8.6763 1.37956
49 1 5.61609 6.80806 2.94309
92 1 4.08237 8.39575 3.91715
55 1 5.96182 7.20282 5.74827
73 1 4.24069 7.79079 8.6716
62 1 5.5567 7.50231 8.18302
61 1 5.67977 8.25545 6.75975
65 1 3.13556 6.80676 8.51515
102 1 4.29589 8.99149 9.50623
81 1 5.82888 6.80296 11.2921
88 1 3.2988 11.4036 1.64109
90 1 3.4413 9.16941 0.698343
85 1 3.27854 10.4862 0.430913
94 1 5.3187 11.7816 5.22028
95 1 5.19993 9.43681 4.15584
97 1 5.25934 10.2907 5.38195
20 1 3.0218 11.9427 4.29619
93 1 5.50396 9.73954 6.82468
100 1 5.45379 10.6232 8.0705
106 1 5.1806 12.0182 8.56337
103 1 3.0585 11.4844 11.7446
98 1 3.28164 11.0769 10.369
99 1 3.16544 9.61381 9.82338
101 1 5.67176 9.62567 9.28646
33 1 3.6385 12.0854 9.2143
114 1 8.92929 1.76589 0.226088
2 1 6.03436 1.16768 2.62422
15 1 6.66663 0.0616034 4.97757
19 1 6.59212 1.08495 3.83781
123 1 8.8076 0.743045 5.16485
129 1 8.48192 0.119544 9.62695
130 1 8.34939 2.67582 11.7455
137 1 7.05979 0.497725 9.98984
134 1 7.019 2.75279 11.1481
147 1 7.84238 4.41349 2.49258
139 1 9.06574 5.04392 2.07681
156 1 6.8793 4.38398 4.67395
150 1 8.33723 4.04963 5.15973
141 1 6.72916 4.59093 3.25829
151 1 8.35305 5.3664 7.1605
166 1 7.30346 4.39913 7.68025
23 1 6.04275 4.14032 6.9089
167 1 7.43432 3.8607 9.06587
165 1 8.52365 4.63488 10.0571
35 1 6.68555 2.90962 9.76128
171 1 8.0391 8.32998 1.76903
140 1 8.72152 8.26827 0.520391
142 1 7.94243 7.25015 2.66933
144 1 6.83584 7.26521 3.46831
148 1 7.13272 7.32802 4.88506
154 1 8.42914 7.17057 5.52601
153 1 8.20433 6.70539 6.82273
162 1 8.64148 7.74491 7.78276
184 1 8.33024 9.14353 7.68961
74 1 6.30099 6.78304 9.06947
160 1 7.52543 7.28288 9.75571
159 1 9.05084 7.16191 9.16966
188 1 8.58606 8.942 11.6128
169 1 6.9137 9.20536 1.86842
91 1 5.93078 9.16825 0.915201
170 1 6.56969 9.69769 3.23021
174 1 7.6629 10.5198 3.78615
179 1 9.02286 10.5721 3.86324
121 1 7.98922 12.233 5.57169
177 1 8.72232 9.78381 6.42242
178 1 8.63914 11.2022 6.36592
180 1 7.96355 9.99767 8.77298
181 1 8.55874 11.4178 8.6871
104 1 6.96131 9.71198 9.78913
110 1 7.30443 9.17535 11.0959
86 1 6.31879 9.41706 12.0583
115 1 10.7185 1.52113 2.18755
112 1 10.0409 1.49448 0.927372
116 1 11.9779 0.837579 2.33573
111 1 10.2086 2.23091 3.5238
120 1 9.96517 1.20269 4.51378
126 1 11.1551 0.200386 4.66489
127 1 10.2436 0.451195 7.90879
189 1 11.553 0.0803837 7.42489
135 1 10.0641 2.57378 10.0189
131 1 9.54411 1.21924 9.24818
105 1 12.0779 -0.240897 10.1632
119 1 10.1092 4.75771 1.18365
117 1 11.3193 4.53763 1.83513
113 1 9.74514 4.37086 -0.104282
146 1 11.1899 4.46269 3.22241
124 1 9.6664 3.89946 5.09027
128 1 10.4289 3.56364 3.99511
157 1 11.3165 5.69983 3.89247
161 1 10.3463 5.01554 8.62735
155 1 9.73981 4.81963 7.31629
122 1 11.8263 3.7944 6.52449
125 1 10.3913 4.16388 6.33
163 1 9.28572 5.65391 9.44777
136 1 9.1047 3.64699 11.0874
132 1 11.4284 3.10766 9.69169
133 1 11.5491 4.44881 9.1051
168 1 11.3496 7.08564 -0.0246896
145 1 10.2658 7.42196 0.631085
143 1 9.1614 6.36523 2.7765
149 1 9.92746 7.43503 5.19737
138 1 10.2628 6.61249 3.72765
152 1 10.9724 7.07409 6.27152
158 1 11.5172 7.43104 9.79624
164 1 10.3472 8.05513 9.2753
79 1 11.3223 6.83599 11.0236
172 1 10.0391 10.2718 4.59948
173 1 11.0518 11.2393 4.91161
176 1 12.1538 10.9376 5.89057
175 1 9.62512 9.20637 5.53526
182 1 11.5971 9.90857 8.06442
186 1 11.6936 11.0488 7.23542
185 1 9.28027 11.8558 7.56042
183 1 10.678 9.47667 9.06076
187 1 10.6332 10.1664 10.3172
190 1 11.4745 11.1962 10.7194
191 1 9.75099 9.67266 11.2647
ITEM: TIMESTEP
4000
ITEM: NUMBER OF ATOMS
191
ITEM: BOX BOUNDS pp pp pp
-1.5753704923864029e-01 1.2157537049238602e+01
-1.5753704923864029e-01 1.2157537049238602e+01
-1.5753704923864029e-01 1.2157537049238602e+01
ITEM: ATOMS id type x y z
4 1 1.84322 2.98271 1.30036
116 1 -0.119329 1.23918 2.62476
12 1 0.921255 0.540577 4.81027
118 1 -0.0691179 0.626207 3.85573
31 1 2.86867 0.804734 8.82525
32 1 1.44196 0.819894 8.61964
11 1 0.707092 0.682197 7.40713
13 1 1.23896 1.14572 6.04799
17 1 2.50092 1.92028 6.17605
28 1 0.540522 1.10254 9.70764
29 1 0.50802 2.52108 9.82674
30 1 1.46406 2.87884 10.7288
38 1 2.52379 1.86742 10.7461
36 1 2.55127 0.652477 11.792
7 1 0.269359 4.59276 1.56929
6 1 1.04523 3.88124 0.662492
45 1 1.06065 5.33799 2.49692
14 1 2.38389 3.47667 6.47711
63 1 0.526013 5.34187 8.74532
22 1 0.860365 3.79911 6.24452
34 1 1.22018 4.04216 11.5899
64 1 1.7688 5.10057 10.7835
66 1 1.80194 4.86742 9.40454
41 1 1.20546 7.65014 2.71903
43 1 2.3042 8.07242 0.674676
42 1 1.12617 7.82027 1.35764
39 1 0.0595633 8.18988 0.481906
54 1 2.56252 6.93778 5.26482
50 1 1.88139 8.5339 3.45831
52 1 1.13069 6.61592 5.45721
53 1 0.170595 6.31115 4.45441
40 1 0.791884 6.48316 3.24393
108 1 1.70205 8.75995 8.73731
67 1 1.92904 7.2955 8.47678
59 1 0.462108 6.72475 6.82601
71 1 0.971978 6.45323 8.069
77 1 2.14028 6.29904 11.3404
76 1 2.0597 7.65644 11.5709
75 1 1.44572 8.86423 11.1554
89 1 0.470688 10.3503 0.798731
84 1 0.988211 10.5008 2.07301
96 1 1.01743 10.4268 5.02274
21 1 1.57015 11.6302 4.62392
83 1 1.90805 9.86192 2.8943
109 1 0.917589 9.58224 7.93046
80 1 0.495618 9.3984 12.113
107 1 2.12246 9.26636 9.94501
3 1 4.46124 0.309725 2.04296
1 1 3.62801 1.42177 1.62362
2 1 5.76657 0.395026 2.48825
5 1 3.04648 2.58963 1.90148
16 1 3.83267 -0.0779302 5.32465
18 1 3.79282 1.42141 5.80068
10 1 4.95783 2.14055 6.16947
26 1 6.09487 0.794457 8.90462
24 1 5.68822 2.21754 9.19279
25 1 3.26993 1.9503 9.55535
27 1 4.32573 2.76349 9.17449
37 1 5.80311 2.97017 11.8771
48 1 4.50383 4.65863 0.571311
8 1 3.74488 3.56853 2.58072
46 1 4.55445 4.56264 1.94
44 1 5.49593 5.35301 2.68687
56 1 4.94341 5.91076 5.81549
58 1 5.98796 4.80469 5.5927
57 1 3.04655 4.67594 6.76517
70 1 3.14927 4.99946 8.54034
51 1 3.45883 5.7805 5.909
78 1 4.9546 4.13103 11.6687
69 1 4.8966 4.80345 10.4546
68 1 4.19604 4.23096 9.28437
47 1 4.60356 7.7798 2.49589
82 1 4.41026 8.61893 1.41631
49 1 5.47468 6.75323 2.80943
92 1 4.17741 8.33489 3.86346
55 1 5.71617 7.10622 5.71974
60 1 2.79439 7.97319 4.45743
65 1 3.20214 6.85694 8.52531
62 1 5.4639 7.52917 8.22483
61 1 5.55103 8.26709 6.88412
73 1 4.12529 7.77495 8.88979
81 1 4.68993 7.01581 11.355
72 1 5.25705 6.17015 10.4815
88 1 3.74268 11.3802 1.90393
85 1 3.26361 10.727 0.614399
90 1 3.27937 9.1507 0.782328
91 1 5.71468 9.2568 0.948181
94 1 5.13146 11.6457 5.52273
95 1 5.21526 9.37476 4.35808
97 1 5.09186 10.2285 5.57469
87 1 3.16986 10.9047 3.14581
20 1 2.94272 11.648 4.38574
93 1 5.29254 9.70363 6.88856
100 1 5.54919 10.6595 8.11089
106 1 5.11201 11.9652 8.55518
103 1 3.15535 11.6018 11.7946
98 1 3.57981 11.3001 10.4055
99 1 3.35581 9.94602 9.99846
101 1 5.59006 9.84049 9.30864
33 1 3.84732 12.0833 9.20733
102 1 4.36019 9.09657 9.59531
114 1 8.9938 1.85929 0.136476
123 1 8.76153 0.557745 4.99889
19 1 6.24953 0.652592 3.7006
15 1 6.43749 -0.183223 5.03096
9 1 6.13023 2.54656 6.54071
130 1 8.10041 2.82115 11.7369
134 1 6.90817 2.63709 11.191
137 1 7.29193 0.406481 9.48157
129 1 8.56721 -0.0162993 9.5088
35 1 6.7447 2.94962 9.78597
147 1 7.78804 4.83943 2.25537
139 1 8.94202 5.48516 2.01997
156 1 6.95176 4.63985 4.42838
150 1 8.17646 4.06155 4.80159
141 1 6.61413 4.73656 3.03521
151 1 8.4688 5.27886 7.04814
166 1 7.37529 4.35518 7.66911
23 1 6.42008 3.9548 6.6485
167 1 7.39571 3.99195 9.15236
165 1 8.4391 4.64029 9.89504
136 1 8.73447 4.08812 11.2797
171 1 7.94305 8.54145 1.7735
142 1 7.96189 7.46299 2.67469
140 1 8.71686 8.52228 0.562042
144 1 6.79004 7.14582 3.41239
148 1 6.72514 7.28517 4.76011
154 1 8.06373 7.04426 5.48571
153 1 8.11379 6.63641 6.84756
162 1 8.48618 7.4764 7.91584
184 1 8.38605 8.92607 7.69127
74 1 6.122 6.88105 9.53109
160 1 7.39494 7.02259 10.0332
159 1 8.48366 6.79595 9.23192
169 1 6.65764 9.21803 1.88457
170 1 6.37408 9.74659 3.31798
174 1 7.51584 10.3388 3.7783
179 1 8.78306 10.5974 3.52681
121 1 7.77114 12.0409 5.40439
177 1 8.76223 9.57387 6.4983
178 1 8.42659 11.0227 6.40127
180 1 8.07704 9.77889 8.77975
181 1 8.75913 11.0838 8.73313
104 1 6.90986 9.56926 9.76135
110 1 7.22201 9.48589 11.1331
188 1 8.47965 9.45705 11.7903
86 1 5.97452 9.38546 11.8877
115 1 10.8776 1.83341 2.29406
112 1 10.098 1.52793 1.05873
111 1 10.2008 2.23485 3.44102
120 1 9.95612 1.00157 4.39317
126 1 11.0098 -0.0320794 4.16482
127 1 10.3208 0.250661 7.84034
189 1 11.6429 -0.0278261 7.24887
131 1 9.81256 0.967155 9.1828
135 1 10.4949 2.30017 9.34073
105 1 11.9676 0.256781 10.3551
119 1 10.01 4.83027 1.27199
117 1 11.1983 4.57555 1.91538
146 1 10.9858 4.65405 3.35995
124 1 9.61183 3.80432 5.06713
128 1 10.3189 3.53161 3.81098
157 1 11.0509 5.98811 4.16331
122 1 11.8327 4.03587 6.18824
161 1 10.4545 5.16912 8.60005
155 1 9.91526 5.03361 7.19295
125 1 10.3989 4.33991 6.11905
133 1 11.6875 4.58726 8.9482
163 1 9.46391 5.73431 9.46777
113 1 9.71707 4.64117 12.1916
132 1 11.6159 3.2282 9.38966
143 1 9.06514 6.64185 2.81064
145 1 9.92245 7.78962 0.62517
149 1 9.30808 7.69485 4.98923
138 1 9.84221 6.91285 3.90684
152 1 11.4867 7.36165 6.57302
158 1 11.3221 7.16043 9.51914
164 1 10.9585 8.2857 8.85132
79 1 11.2743 7.01184 10.8402
168 1 11.228 7.44795 12.2469
172 1 9.82608 10.1486 4.33649
173 1 10.9956 10.95 4.50734
176 1 11.9855 10.504 5.35999
175 1 9.49831 9.10125 5.25419
182 1 11.9671 10.1635 7.93631
186 1 11.8011 10.929 6.83458
185 1 9.30914 11.601 7.41923
183 1 11.1026 9.7021 9.03153
187 1 10.7597 10.3147 10.2391
190 1 11.3392 11.449 10.9162
191 1 9.70052 9.74889 11.0711
ITEM: TIMESTEP
5000
ITEM: NUMBER OF ATOMS
191
ITEM: BOX BOUNDS pp pp pp
-9.9873922052906863e-02 1.2099873922052884e+01
-9.9873922052906863e-02 1.2099873922052884e+01
-9.9873922052906863e-02 1.2099873922052884e+01
ITEM: ATOMS id type x y z
4 1 1.29536 2.57328 1.87875
5 1 2.72673 2.71095 2.24311
116 1 0.0876896 1.69378 2.47075
12 1 1.16733 0.787347 4.69095
118 1 0.124696 0.852743 3.66736
31 1 2.82009 0.919097 8.75296
32 1 1.34721 1.13125 8.45036
11 1 0.647736 0.848821 7.20345
13 1 1.23832 1.29909 6.07125
17 1 2.52297 2.06043 6.35715
28 1 0.549234 1.06065 9.69971
29 1 0.22585 2.31818 10.2686
30 1 1.40518 2.68685 11.0015
38 1 2.5343 1.86846 10.8575
36 1 2.94645 0.828811 11.7155
7 1 0.214242 4.64685 1.52065
6 1 1.01633 3.63591 0.903029
45 1 0.956916 5.57858 2.13878
14 1 2.13585 3.45315 6.32732
63 1 0.513413 5.3152 8.85973
22 1 0.681754 3.69631 6.23233
34 1 1.52524 3.75319 11.8506
64 1 1.82384 5.10491 11.1546
66 1 1.53155 4.94518 9.73962
41 1 0.946706 7.85481 2.89163
43 1 2.28254 8.27632 0.901704
42 1 0.969336 8.02335 1.55504
54 1 2.43799 6.98171 5.26898
50 1 1.75942 8.89904 3.65476
52 1 1.08459 6.47752 5.56431
53 1 0.315949 6.27142 4.44546
40 1 0.992442 6.48128 3.20967
60 1 2.8014 8.24896 4.46315
108 1 1.65392 8.46098 8.58848
67 1 2.06893 7.12883 8.40511
59 1 0.454653 6.39852 6.81741
71 1 1.07214 6.2708 7.99241
77 1 2.25421 6.28594 11.6123
76 1 2.12924 7.63181 11.7692
75 1 1.4756 8.74005 11.0287
107 1 2.0316 8.94384 9.79412
89 1 0.626952 10.6105 0.483982
84 1 1.08942 10.8541 1.78221
83 1 1.76679 10.1357 2.81759
96 1 1.09523 10.7117 5.35791
21 1 1.79452 11.7311 4.73816
109 1 0.965082 9.19569 7.77538
80 1 0.587216 9.4463 11.8914
105 1 0.316344 12.0176 10.1439
3 1 4.39134 0.503853 1.79954
1 1 3.50079 1.59061 2.22424
2 1 5.6833 0.492544 2.17876
16 1 4.11426 0.187429 5.1871
18 1 3.90581 1.4017 5.83718
10 1 5.13642 1.96279 6.34008
9 1 5.69771 2.92172 7.04154
26 1 5.74098 0.753624 9.03697
25 1 3.21132 1.91306 9.63051
27 1 4.13859 2.88665 9.32092
24 1 5.5167 2.18973 9.25774
48 1 4.8219 4.97436 0.693214
8 1 3.46587 3.95531 2.41708
46 1 4.44548 4.82459 1.91468
44 1 5.42052 5.38346 2.77128
58 1 6.02288 4.98425 5.61032
51 1 3.44002 6.00868 5.95791
57 1 3.06421 4.73331 6.81231
70 1 3.62487 5.18749 8.27738
78 1 4.77603 4.06916 11.8183
69 1 4.74578 4.83059 10.5375
37 1 5.59318 2.8882 11.837
68 1 4.00488 4.34085 9.28012
47 1 4.51446 7.79165 2.67452
82 1 4.55707 8.54743 1.458
81 1 5.40519 6.31979 -0.12674
92 1 4.21019 8.52668 3.85919
55 1 5.92587 7.34825 5.92293
56 1 4.994 6.1387 5.89809
49 1 5.48482 6.71717 3.0781
65 1 3.39021 6.62799 8.58996
62 1 5.69493 7.44777 8.39051
73 1 4.28822 7.84905 8.77893
61 1 5.7664 8.22729 7.1007
72 1 5.56879 6.01902 10.6158
102 1 4.37784 9.04749 9.47204
88 1 3.64783 11.5011 1.75898
85 1 3.40142 10.6955 0.594214
90 1 3.43917 9.18628 0.837905
91 1 5.77582 9.15637 1.07489
94 1 5.41496 11.667 5.23956
95 1 5.20146 9.46997 4.26424
97 1 5.25877 10.2119 5.55982
20 1 3.11396 11.846 4.22207
87 1 3.04848 11.0705 2.98417
93 1 5.61459 9.69173 6.9757
100 1 5.35358 10.5472 8.00162
106 1 4.89435 11.8762 8.3059
33 1 3.53839 11.8369 8.95619
103 1 3.1205 11.5431 11.5537
98 1 3.29495 11.0897 10.2097
99 1 3.1573 9.68178 9.87929
101 1 5.52274 9.77033 9.19194
123 1 8.76559 0.76767 4.92415
19 1 6.4716 0.403275 3.35806
15 1 6.48919 -0.0873845 4.58872
137 1 7.11406 0.482283 9.37093
129 1 8.4145 0.129079 9.22591
134 1 6.86906 2.85874 11.1395
130 1 8.1522 2.86618 11.7431
147 1 7.70801 4.61786 2.30188
139 1 8.84472 5.48982 2.10167
156 1 6.87103 4.59063 4.5561
150 1 8.00437 4.0579 4.94429
141 1 6.52018 4.60165 3.13938
151 1 8.43686 5.36221 7.0965
166 1 7.32845 4.59419 7.72548
23 1 6.25292 4.13291 6.797
165 1 8.54662 4.54766 9.86126
136 1 8.71038 4.08399 11.3338
167 1 7.42807 4.09097 9.11405
35 1 6.59187 3.07353 9.69918
171 1 7.92746 8.51123 1.85554
142 1 7.92319 7.51399 2.80718
140 1 8.69341 8.80423 0.580473
143 1 8.95113 6.62925 2.82747
144 1 6.73391 7.21889 3.61327
148 1 7.01415 7.45209 5.00565
154 1 8.35696 7.17726 5.45087
153 1 8.46316 6.68331 6.73291
162 1 8.86175 7.57959 7.78855
184 1 8.4334 8.94579 7.58543
159 1 8.73432 6.87407 9.02809
160 1 7.5877 7.06718 9.78309
74 1 6.22456 6.8289 9.60357
169 1 6.72646 9.20659 1.95188
170 1 6.49772 9.70243 3.36592
174 1 7.73641 10.2314 3.74207
179 1 9.09514 10.2669 3.42566
121 1 7.75887 11.9772 5.34961
177 1 8.91105 9.51204 6.28278
178 1 8.41009 11.0124 6.23953
180 1 7.86094 9.91521 8.54429
181 1 8.5573 11.2056 8.45218
104 1 6.92278 9.59683 9.55726
188 1 8.37902 9.27939 11.5521
110 1 7.14624 9.62754 10.9585
86 1 6.07434 9.6091 12.0236
115 1 10.9208 1.88551 2.08996
112 1 10.2017 1.84825 0.805494
114 1 9.00452 1.92085 0.199622
111 1 10.1153 2.15281 3.26371
120 1 9.83287 0.911103 4.03435
126 1 11.0533 0.0650262 3.95462
127 1 10.3141 0.453497 7.62916
189 1 11.7126 0.0159274 7.30127
131 1 9.71667 1.08383 8.92648
135 1 10.3194 2.29094 9.15781
119 1 9.85775 4.96649 1.3208
117 1 11.0577 4.52989 2.0188
113 1 9.44896 4.83006 -0.0393595
146 1 10.9008 4.55974 3.49247
124 1 9.40996 3.62245 5.09142
128 1 10.1143 3.41413 3.9413
157 1 11.0466 5.87038 4.01989
161 1 10.3966 5.01677 8.49382
155 1 9.67582 4.68575 7.31168
125 1 10.1837 3.83585 6.22199
133 1 11.545 4.44601 8.94135
122 1 11.5151 3.56523 6.2049
163 1 9.42702 5.6059 9.3165
132 1 11.4868 2.99718 9.48731
145 1 9.87428 8.22837 0.771663
168 1 11.0043 7.60093 0.299155
39 1 12.1689 8.38766 0.602874
149 1 9.56855 7.71858 4.84508
138 1 9.92458 6.8073 3.8041
175 1 9.70661 9.03544 5.12111
152 1 11.1483 6.54186 6.78055
158 1 11.4207 6.95586 9.96389
79 1 11.1481 6.78471 11.3142
164 1 11.3695 7.84887 8.94722
172 1 10.1449 9.95425 4.26222
173 1 11.0717 10.9666 4.54105
176 1 11.9499 10.699 5.57401
182 1 11.9071 9.85529 7.82706
186 1 11.6425 10.8563 6.9179
183 1 11.1442 9.1988 8.85416
185 1 9.27836 11.5742 7.36086
187 1 10.8276 9.98002 10.0713
190 1 11.5386 11.2018 10.2555
191 1 9.65971 9.65257 10.7793
ITEM: TIMESTEP
6000
ITEM: NUMBER OF ATOMS
191
ITEM: BOX BOUNDS pp pp pp
-1.2825806778357973e-01 1.2128258067783557e+01
-1.2825806778357973e-01 1.2128258067783557e+01
-1.2825806778357973e-01 1.2128258067783557e+01
ITEM: ATOMS id type x y z
4 1 1.29606 2.45625 1.78608
5 1 2.74087 2.61961 1.73686
116 1 0.0923054 1.76955 2.49127
12 1 1.11836 0.781308 4.88011
118 1 0.148619 0.954954 3.84891
31 1 2.69141 0.832208 8.96405
32 1 1.25432 0.945642 8.56769
11 1 0.648091 1.01125 7.26324
13 1 1.29123 1.48782 6.06053
17 1 2.57646 2.22741 5.96143
28 1 0.410211 1.02639 9.68391
29 1 0.333472 2.28857 10.2359
30 1 1.38162 2.65742 11.113
38 1 2.52293 1.76442 10.944
36 1 2.93255 0.596443 11.746
7 1 0.293991 4.62511 1.66027