ITEM: TIMESTEP
1000
ITEM: NUMBER OF ATOMS
191
ITEM: BOX BOUNDS pp pp pp
0.0000000000000000e+00 1.2000000000000000e+01
0.0000000000000000e+00 1.2000000000000000e+01
0.0000000000000000e+00 1.2000000000000000e+01
ITEM: ATOMS id type x y z
12 1 1.20509 0.848646 4.8824
1 1 2.45416 2.21262 3.44646
118 1 0.0568909 0.931156 4.21542
31 1 2.7963 1.20012 8.59879
32 1 1.33362 1.11411 8.47168
11 1 0.524598 1.20419 7.34151
17 1 2.71238 2.40746 6.16634
13 1 1.38231 1.67759 6.10224
28 1 0.600435 1.06936 9.68613
29 1 0.380463 2.49177 10.0643
30 1 1.54051 2.88833 10.6729
38 1 2.76966 2.1392 10.5977
4 1 2.18611 3.42645 1.49308
6 1 1.37529 4.1638 0.681185
7 1 0.316389 4.7799 1.23673
5 1 2.72351 3.38718 2.80547
53 1 0.358511 5.83537 4.1516
14 1 2.48962 3.77126 6.47623
22 1 1.04066 4.12647 6.92577
63 1 0.861504 4.89394 8.19573
34 1 1.60511 4.1806 11.3394
64 1 1.84804 5.17285 10.4568
66 1 1.97643 4.87993 9.13738
39 1 0.181589 8.50532 0.712513
43 1 2.65505 8.15867 0.868042
42 1 1.41328 7.99508 1.5577
45 1 0.410238 6.0196 1.6437
40 1 0.607622 6.50916 2.98891
41 1 1.37971 7.70322 2.91852
54 1 2.3679 6.52629 5.21292
50 1 2.14686 8.46843 3.69532
52 1 1.04645 6.21113 5.25484
60 1 2.43505 7.90596 4.88676
59 1 0.319578 6.54721 6.41356
67 1 1.82448 7.31926 8.10585
71 1 0.824954 6.39916 7.65354
108 1 1.50378 8.72625 8.5489
75 1 1.63839 8.73584 10.9
76 1 2.39605 7.75422 11.4558
77 1 2.36185 6.3648 11.1126
89 1 1.68557 10.4378 0.778156
84 1 1.26087 10.293 2.26055
96 1 1.39937 10.5244 5.80047
21 1 1.92503 11.6793 5.0829
83 1 1.97272 9.86486 3.45811
109 1 0.460584 9.13924 7.92927
107 1 1.96788 9.23301 9.68906
80 1 0.964113 9.47731 11.8748
3 1 3.46182 1.23958 3.5408
16 1 4.12741 0.164967 5.50129
2 1 4.94593 1.47411 3.18049
9 1 5.79569 2.82726 7.153
24 1 5.70492 2.43076 8.65892
26 1 5.83625 0.933983 8.58776
10 1 5.33926 2.06308 6.16372
18 1 3.95423 1.52412 6.0336
25 1 3.47206 2.22466 9.36298
36 1 3.1563 1.05003 11.3995
48 1 4.33373 4.65548 0.709691
44 1 5.99016 5.22315 2.44868
46 1 4.83482 4.57961 2.03733
8 1 3.91788 4.06314 2.96916
58 1 5.89245 4.77236 5.62939
56 1 5.05263 5.94244 5.47293
51 1 3.61934 5.79543 5.77172
70 1 3.40603 5.25056 8.37877
57 1 3.29911 4.88631 6.83742
78 1 5.12797 4.29346 11.5245
68 1 4.40579 4.42649 9.42396
69 1 5.059 5.21573 10.3426
27 1 4.47806 3.0505 9.22505
47 1 5.19546 7.94796 2.43487
82 1 4.90455 8.78538 1.39948
92 1 5.0144 8.61295 3.70179
55 1 5.95341 7.18716 5.53858
73 1 4.19161 7.74413 8.55678
62 1 5.53684 7.49362 7.95057
65 1 3.19209 6.8109 8.4114
61 1 5.63671 8.06901 6.60218
72 1 5.55993 6.5066 10.3029
81 1 5.54413 7.76087 11.0694
88 1 3.49987 11.0428 2.1632
85 1 3.16455 10.4098 1.00517
91 1 5.91697 9.71594 1.04399
90 1 3.67653 9.11918 1.0001
94 1 5.51007 11.7138 5.47563
97 1 5.54044 10.2859 5.25334
87 1 3.11333 10.7168 3.43176
20 1 3.18504 11.8843 4.2963
95 1 5.89847 9.73487 4.04418
93 1 5.64775 9.60237 6.45837
100 1 5.39615 10.4731 7.59658
101 1 5.51693 9.71445 8.84227
106 1 4.93343 11.8978 7.96221
33 1 3.59975 11.9983 8.55921
98 1 3.50555 11.1841 9.68144
103 1 3.22428 11.7935 10.9441
99 1 3.27887 9.79207 9.59418
102 1 4.32834 9.07969 9.01661
114 1 8.60925 1.0636 0.341457
15 1 6.28686 1.03729 5.36838
19 1 6.14573 1.31933 3.9212
121 1 7.76238 0.614062 5.91285
128 1 8.88866 2.97665 3.70562
129 1 8.35478 0.18746 9.37563
130 1 8.26103 2.13424 11.4211
137 1 7.02759 0.504277 9.32774
134 1 6.96563 2.54662 10.8961
35 1 6.87822 2.8466 9.43909
147 1 8.12484 3.78741 2.81579
139 1 8.95702 4.71955 2.11283
141 1 6.86754 4.534 3.29409
150 1 8.14886 4.52859 5.47536
156 1 6.87198 4.6036 4.71775
151 1 8.27125 5.07366 6.80782
166 1 7.22697 4.60737 7.64401
23 1 6.11789 4.13615 6.99852
167 1 7.57641 4.01855 8.90824
165 1 8.33637 4.89564 9.7276
37 1 6.09022 3.28999 11.648
49 1 6.32647 6.66491 2.15676
140 1 7.99375 7.68454 0.383597
142 1 8.58072 7.38481 2.5869
145 1 6.96274 6.67636 0.681379
171 1 8.11027 8.45739 1.63405
144 1 7.31434 7.04926 3.2988
148 1 7.18411 7.1601 4.73754
154 1 8.35935 7.1502 5.53352
153 1 8.1698 6.55922 6.73473
162 1 8.58165 7.49694 7.74916
184 1 8.14193 8.93666 7.51019
188 1 7.99517 8.26872 11.0671
74 1 6.48352 6.90777 9.14608
160 1 7.81743 7.2395 9.89896
169 1 7.09657 9.53003 1.87342
174 1 7.97704 10.9841 3.56656
170 1 6.93637 10.1165 3.21665
177 1 8.34338 9.55504 6.12299
178 1 8.10362 11.1346 6.34415
180 1 7.89147 9.70405 8.60484
181 1 8.60636 10.9521 8.71045
185 1 8.91145 11.4014 7.40967
104 1 6.73251 9.58153 9.41521
110 1 6.49943 9.08283 10.8292
86 1 6.07477 10.1283 11.7812
115 1 10.3233 1.23323 2.44296
116 1 11.6482 0.993539 2.82226
112 1 9.70433 1.22206 1.2498
111 1 9.4857 1.66562 3.53701
126 1 10.9251 0.207048 4.75638
120 1 9.76984 1.11383 4.82804
123 1 9.07273 1.35593 5.95414
127 1 9.85358 0.871564 7.35898
189 1 11.3665 0.497339 7.24559
131 1 9.26943 1.27343 8.8753
135 1 9.92736 2.45712 9.72437
136 1 9.31994 2.91918 10.9834
105 1 11.8296 0.0101488 10.1355
119 1 10.0568 4.12402 1.1601
117 1 11.2913 4.10232 1.87838
157 1 11.3328 4.9189 4.17809
124 1 9.18021 3.70881 5.01453
146 1 11.3855 3.97031 3.30822
138 1 10.2186 5.74187 3.89366
161 1 10.2777 4.94223 8.31128
155 1 9.72347 4.77316 7.05922
133 1 11.4486 4.36918 8.8939
122 1 11.7791 3.7662 6.22739
125 1 10.4313 4.01175 6.05778
163 1 9.44619 5.61201 9.18789
113 1 9.86272 3.82653 11.855
132 1 11.2015 3.12199 9.46298
143 1 9.41135 6.11047 2.82495
168 1 11.139 7.60473 0.563201
149 1 9.69535 7.6531 5.41856
152 1 10.827 7.13612 6.19421
159 1 9.168 7.09184 8.9772
158 1 11.2905 7.02504 10.2119
164 1 10.4181 7.84684 9.49228
79 1 11.2299 6.74242 11.5198
172 1 10.0074 10.0659 4.56232
173 1 11.0291 10.7553 5.07982
175 1 9.42791 9.05859 5.30838
179 1 9.28849 10.6904 3.58403
182 1 11.2861 9.8532 8.11419
186 1 11.4828 11.032 7.29613
176 1 11.9937 10.5963 6.03074
187 1 10.2157 9.88624 10.5578
190 1 10.9942 11.1135 10.7664
183 1 10.5117 9.3033 9.2034
191 1 9.03 9.33326 11.045
ITEM: TIMESTEP
2000
ITEM: NUMBER OF ATOMS
191
ITEM: BOX BOUNDS pp pp pp
-1.1113545752266703e-01 1.2111135457522668e+01
-1.1113545752266703e-01 1.2111135457522668e+01
-1.1113545752266703e-01 1.2111135457522668e+01
ITEM: ATOMS id type x y z
4 1 1.92407 2.74387 1.23731
12 1 1.08883 0.523027 4.82294
118 1 0.118035 0.302993 3.82721
31 1 2.68596 0.961309 8.70929
32 1 1.23131 0.74232 8.51586
11 1 0.619794 0.805109 7.25452
17 1 2.61095 2.14454 6.16982
13 1 1.31288 1.3798 6.17477
28 1 0.307634 0.962343 9.67701
29 1 0.146459 2.38418 10.2526
30 1 1.41404 2.73636 11.0124
38 1 2.59462 2.05338 10.7749
7 1 0.561748 4.77014 1.38849
6 1 1.24849 3.88431 0.653892
45 1 1.18465 5.8821 1.94516
14 1 2.25817 3.52375 6.5145
22 1 0.951836 3.89734 7.01726
63 1 0.737572 4.72026 8.27054
34 1 1.47389 4.0229 11.5099
64 1 1.81381 5.13454 10.6788
66 1 1.89289 4.83352 9.07476
39 1 0.117127 8.78791 0.886332
43 1 2.34533 8.22148 0.707672
42 1 1.30296 8.24794 1.6676
54 1 2.71701 6.70159 5.23349
50 1 2.27593 8.74999 3.57181
52 1 1.12242 6.49429 5.48745
53 1 0.469619 6.19208 4.16953
40 1 1.03332 6.5491 3.08666
41 1 1.39665 7.85659 2.93017
108 1 1.38907 8.66084 8.53144
67 1 1.72262 7.26209 8.26987
59 1 0.0944087 6.73724 6.60706
71 1 0.722939 6.40204 7.81249
77 1 2.07129 6.43739 11.1504
76 1 1.95122 7.71498 11.6196
75 1 1.31783 9.00488 10.953
89 1 1.5276 10.6978 0.814528
84 1 1.21189 10.7136 2.19345
80 1 0.82005 9.69639 -0.0144569
83 1 2.14147 10.1485 3.21876
21 1 1.97999 11.489 5.13896
96 1 1.08597 10.5585 5.74634
109 1 0.170309 9.09549 8.06456
107 1 1.76975 9.28217 9.71212
3 1 4.65688 0.466485 2.00665
1 1 3.75905 1.40824 1.86618
2 1 5.87921 0.792952 2.49586
5 1 3.05167 2.61284 2.09437
16 1 4.13241 -0.0144043 5.44001
18 1 3.87543 1.31329 5.9001
26 1 5.83796 0.837965 9.02409
24 1 5.58592 2.28303 8.70637
10 1 5.0195 1.93358 6.31456
9 1 5.71238 2.71175 7.218
25 1 3.16843 2.20951 9.49816
36 1 2.91193 0.963146 11.575
48 1 4.06993 4.89488 0.649135
44 1 5.57504 5.26389 2.78679
46 1 4.54493 4.6921 1.96789
8 1 3.7977 3.70363 2.49636
56 1 5.21146 5.73825 5.70385
51 1 3.67984 5.69912 5.81809
70 1 3.14086 5.23489 8.46552
57 1 3.13303 4.7727 6.87473
78 1 4.82045 4.66162 11.7083
68 1 4.26648 4.64032 9.19592
69 1 4.83814 5.18744 10.3179
37 1 5.73657 3.56839 11.6424
27 1 4.30477 3.06671 9.20615
47 1 4.87902 7.65651 2.48454
82 1 4.6582 8.70092 1.4408
49 1 5.97789 6.62079 2.34621
92 1 4.59119 8.27904 4.0113
60 1 3.30773 7.98975 4.37225
55 1 5.91458 7.01038 5.55016
73 1 4.16232 7.80931 8.59233
62 1 5.47218 7.45717 8.08247
61 1 5.74511 8.0395 6.73898
65 1 3.12523 6.82913 8.43117
72 1 5.39535 6.47898 10.1554
81 1 5.46297 7.59163 11.0701
102 1 4.18404 9.11797 9.16442
88 1 3.82349 11.2653 2.13676
85 1 3.1261 10.7575 0.643898
91 1 5.8073 9.65957 1.15911
90 1 3.3377 9.22086 0.887721
20 1 3.18551 11.4353 4.6076
94 1 5.5044 11.7085 5.39545
97 1 5.61932 10.2158 5.2343
87 1 3.23733 10.8932 3.36284
95 1 5.67018 9.39523 4.12687
93 1 5.41605 9.5541 6.53049
100 1 5.34698 10.7393 7.86184
101 1 5.36844 9.83677 8.92259
33 1 3.54378 12.1371 9.00327
106 1 4.89399 12.0868 8.32986
98 1 3.34308 11.1481 10.1622
99 1 3.15173 9.78264 9.9321
103 1 3.2677 11.7005 11.576
86 1 5.82645 9.9064 12.0119
114 1 8.71584 1.95675 0.427737
15 1 6.81491 0.176047 4.91907
19 1 6.66669 0.744257 3.59075
121 1 8.15115 0.0991489 5.53351
129 1 8.18496 0.343754 9.56172
130 1 8.07676 2.60941 11.5552
137 1 6.85138 0.479468 10.0001
134 1 6.77849 2.90711 11.0115
147 1 7.84322 4.61093 2.37839
141 1 6.7428 4.53858 3.23947
150 1 8.26612 3.71083 4.83945
156 1 6.96724 4.25935 4.60935
58 1 6.02532 4.51453 5.79842
151 1 8.55538 5.22807 7.08197
166 1 7.56888 4.36345 7.6444
23 1 6.29138 3.9882 6.9895
165 1 8.62957 4.50145 9.81479
35 1 6.63988 3.07458 9.56002
167 1 7.48361 4.09993 9.09882
171 1 7.89893 8.32888 1.52991
140 1 7.60148 7.65403 0.403096
142 1 8.3215 7.54402 2.62792
145 1 6.5758 6.76011 0.771713
144 1 7.12339 7.06966 3.31325
148 1 7.0439 7.06402 4.76678
154 1 8.35135 7.02891 5.46382
153 1 8.30689 6.57655 6.82107
162 1 8.568 7.5921 7.83901
184 1 8.3984 8.98477 7.64169
188 1 7.8611 8.35227 11.2398
160 1 7.70513 7.29711 9.79307
74 1 6.3596 6.89283 9.15342
110 1 6.51175 9.03708 10.991
159 1 8.96208 7.02789 9.08307
169 1 6.91375 9.3744 1.94627
174 1 7.90154 10.5574 3.73982
170 1 6.81474 9.79839 3.33504
177 1 8.87808 9.73183 6.32163
178 1 8.76967 11.1949 6.29606
180 1 7.78609 9.91428 8.75805
181 1 8.26523 11.3743 8.72477
104 1 6.64298 9.74758 9.66474
191 1 9.01766 9.46384 11.0016
115 1 10.7096 1.39587 2.1346
112 1 9.73168 1.25006 1.06104
116 1 12.0117 0.870038 2.60094
111 1 10.2884 2.04924 3.36267
120 1 10.185 1.10158 4.39576
123 1 9.13665 0.971946 5.28437
126 1 11.1341 0.0362614 4.37761
127 1 10.0577 0.724424 7.88105
189 1 11.431 0.268991 7.42303
135 1 9.97717 2.53143 9.84846
131 1 9.39291 1.3241 9.12241
119 1 9.98151 4.65552 1.03749
117 1 11.3058 4.51297 1.75009
139 1 9.09266 5.35253 1.94628
157 1 11.3735 5.71276 3.8777
124 1 9.7172 3.59094 5.08264
128 1 10.4965 3.30983 3.8099
146 1 11.1776 4.34037 3.20756
161 1 10.4497 4.9813 8.44739
155 1 9.97529 4.7969 7.07477
125 1 10.5227 4.06196 6.09271
122 1 11.9621 3.79616 6.30542
133 1 11.578 4.33427 8.91856
163 1 9.44213 5.53626 9.22087
136 1 9.16027 3.43159 10.8316
113 1 9.71682 4.36175 11.9152
132 1 11.3295 3.08067 9.63662
143 1 9.16603 6.42141 2.76458
168 1 11.2616 7.96357 0.857329
149 1 9.8464 7.50728 5.17667
138 1 10.1618 6.6731 3.80065
175 1 9.71821 9.01884 5.36732
152 1 11.0564 7.19553 6.09891
158 1 11.0175 7.47873 10.4803
164 1 10.2021 7.82293 9.43271
79 1 10.8091 7.43382 11.8879
172 1 10.2161 9.94316 4.50903
173 1 11.0938 10.9513 4.8677
179 1 9.2642 10.4606 3.65685
176 1 11.8966 10.6149 5.93607
182 1 11.3219 9.96282 8.12825
186 1 11.4842 11.0599 7.26833
183 1 10.5097 9.32128 9.12129
185 1 9.30862 11.6594 7.73352
187 1 10.1056 10.047 10.1659
190 1 10.6542 11.279 10.3833
105 1 11.6305 12.0723 10.1157
ITEM: TIMESTEP
3000
ITEM: NUMBER OF ATOMS
191
ITEM: BOX BOUNDS pp pp pp
-2.2061309705026538e-01 1.2220613097050290e+01
-2.2061309705026538e-01 1.2220613097050290e+01
-2.2061309705026538e-01 1.2220613097050290e+01
ITEM: ATOMS id type x y z
12 1 0.905009 0.498814 5.08231
118 1 -0.109778 0.704772 3.99866
11 1 0.430243 0.677315 7.43306
32 1 1.35727 0.875422 8.53195
31 1 2.83211 0.712716 8.87472
17 1 2.11848 2.19219 6.1692
13 1 0.949694 1.31833 6.20787
28 1 0.574188 0.81186 10.0025
29 1 0.356814 2.17404 10.383
30 1 1.56408 2.76063 11.0104
38 1 2.61975 1.85433 10.9209
7 1 -0.17706 4.73355 1.21941
6 1 0.968259 3.98004 0.521297
45 1 0.657951 5.66264 1.87052
4 1 1.64362 3.01862 1.29871
53 1 0.309592 6.07804 4.05851
14 1 1.90778 3.85035 6.65595
22 1 0.621625 4.2519 6.94917
63 1 0.31343 4.62818 8.29041
34 1 1.45868 4.13527 11.5875
64 1 1.44304 5.32208 10.6278
66 1 1.58813 5.06256 9.12218
41 1 1.62774 7.73976 2.70146
43 1 2.61072 8.32734 0.387733
42 1 1.49894 8.07926 1.28984
39 1 0.352279 8.31158 0.541082
40 1 0.945389 6.45659 2.89836
54 1 2.67808 6.89652 5.31208
50 1 2.0374 8.87899 3.6027
52 1 0.891035 6.43499 5.35412
108 1 1.60782 8.89228 8.7447
67 1 1.70339 7.58292 8.36877
59 1 0.0415676 6.99449 6.33128
71 1 0.63105 7.17424 7.64702
77 1 2.0943 6.59816 11.0851
76 1 2.16268 7.94766 11.5546
89 1 0.489275 10.609 0.855993
84 1 1.09921 10.5011 2.05794
80 1 0.446368 9.52496 -0.18095
96 1 0.970901 10.6278 5.39935
21 1 1.62671 11.6905 4.95761
83 1 2.13031 10.2184 3.02041
20 1 2.87592 11.9406 4.2999
109 1 0.870415 9.70746 7.99051
107 1 2.07014 9.50099 9.9514
75 1 1.37398 9.19551 11.0486
105 1 0.060585 12.0821 10.3946
3 1 4.31528 0.338315 1.71389
1 1 3.58434 1.2832 0.916722
2 1 5.38943 0.786885 2.58611
5 1 3.08914 2.53432 1.51345
16 1 3.88623 0.11847 5.28514
18 1 3.52447 1.43109 5.89908
9 1 5.73797 2.63713 7.22591
10 1 4.84367 2.01875 6.44276
25 1 3.19295 1.8357 9.6089
36 1 3.21855 0.972571 12.0217
48 1 4.45673 4.87492 0.596543
8 1 3.96143 3.38118 2.23441
46 1 4.45875 4.62671 1.94824
44 1 5.44093 5.31812 2.8467
56 1 5.03049 5.90796 5.75923
58 1 5.9117 4.56949 5.69638
57 1 2.94975 4.87914 6.76665
70 1 2.98821 5.47399 8.46036
78 1 4.85101 4.36282 11.6756
68 1 4.01677 4.66091 9.38386
69 1 4.66618 5.07089 10.5333
37 1 5.70094 3.17395 11.6399
27 1 3.4741 3.25863 9.24503
47 1 4.67039 8.09097 2.6565
82 1 4.6166 8.84257 1.46467
92 1 4.33749 8.70207 4.10799
60 1 2.9582 8.27739 4.63442
55 1 5.91876 7.26406 5.86944
49 1 5.58568 6.82483 3.06026
73 1 4.0987 7.86062 8.77697
62 1 5.30779 7.44754 8.26736
61 1 5.62805 8.11822 6.99096
65 1 2.96709 7.01308 8.60552
51 1 3.65723 6.01366 6.07974
81 1 5.01713 7.36984 11.3114
72 1 5.22241 6.39381 10.412
88 1 3.69197 11.5595 1.87581
85 1 3.51256 10.8109 0.616488
91 1 5.86027 9.39985 1.08756
90 1 3.46734 9.31496 0.795113
95 1 5.78358 9.59127 4.31955
94 1 5.28412 11.8858 5.32354
97 1 5.33851 10.4406 5.51328
87 1 3.10611 11.2358 3.05031
93 1 5.51139 9.72168 6.79646
100 1 5.6793 10.6199 8.07096
106 1 5.27517 11.9709 8.43755
101 1 5.665 9.72203 9.22579
98 1 3.69011 11.2463 10.4415
103 1 3.28896 11.7483 11.7593
99 1 3.41063 9.88594 10.1359
102 1 4.25001 9.15911 9.32903
33 1 3.96768 12.1664 9.28924
114 1 8.53325 1.99996 0.495595
123 1 8.6204 0.992458 5.14868
19 1 6.25259 0.836064 3.5761
15 1 6.42825 0.213886 4.88617
121 1 7.69834 -0.0871763 5.50991
26 1 6.21469 0.530864 8.62365
24 1 6.21399 1.9149 8.42678
129 1 8.46076 -0.0159913 9.3604
137 1 7.20047 0.336465 9.71809
130 1 8.09441 2.56891 11.7395
134 1 6.7628 2.58265 10.9771
35 1 6.81205 2.74073 9.47735
147 1 7.56654 4.26155 2.44338
139 1 8.77734 5.08132 1.96428
141 1 6.51443 4.44205 3.24277
150 1 8.18324 3.65752 4.80164
156 1 6.73342 4.20938 4.61533
151 1 8.44949 5.10132 7.07506
166 1 7.33466 4.37532 7.64976
23 1 6.24195 3.91708 6.97068
167 1 7.48699 3.83638 8.96257
165 1 8.45886 4.26399 9.9317
136 1 8.92758 3.66836 11.1405
171 1 8.0584 8.2184 1.54569
140 1 8.73735 8.20642 0.366252
142 1 8.0402 7.23221 2.66841
143 1 9.06489 6.26034 2.68622
144 1 6.90254 7.02673 3.5444
148 1 7.11691 7.27172 4.98153
154 1 8.48835 7.04322 5.57839
153 1 8.46551 6.54597 7.01566
162 1 8.598 7.57449 8.02277
184 1 8.5253 8.936 7.72074
160 1 7.39057 6.63608 9.80918
74 1 6.04805 6.82431 9.38317
159 1 8.74513 6.71927 9.27975
169 1 7.00503 9.13348 1.87681
174 1 7.83983 10.648 3.27063
170 1 6.80772 9.65322 3.21977
179 1 9.18741 10.4305 3.28549
177 1 8.5458 9.62302 6.38891
178 1 8.42269 11.1679 6.13865
180 1 8.08914 9.75303 8.75807
181 1 8.53991 11.2136 8.55791
104 1 7.02096 9.576 9.7559
110 1 7.21365 9.46937 11.2089
188 1 8.50625 9.1754 11.7252
86 1 6.15769 9.56499 12.1292
115 1 10.8143 1.47568 2.30277
112 1 9.59895 1.45885 1.25271
116 1 12.0775 1.07997 2.59606
111 1 10.1972 2.09226 3.44272
120 1 9.89162 1.33692 4.55694
126 1 11.0422 0.12274 4.59421
127 1 10.4291 0.159944 7.83991
189 1 11.6666 -0.100853 7.34635
131 1 9.68274 0.991142 8.99034
135 1 10.3095 1.9673 9.80299
132 1 11.4745 2.96159 9.81599
119 1 9.90445 4.74562 1.09307
117 1 11.053 4.46824 1.7263
113 1 9.47735 4.32435 -0.260464
146 1 11.0733 4.32394 3.12957
124 1 9.65776 3.77366 4.96548
128 1 10.3839 3.4284 3.85199
157 1 11.3196 5.63713 3.75621
161 1 10.3566 4.65068 8.62358
155 1 9.79617 4.36723 7.31544
122 1 11.9026 4.00856 6.16034
125 1 10.4739 4.03561 6.05694
133 1 11.6113 4.11315 9.08293
163 1 9.34524 5.38539 9.37529
168 1 11.9829 7.23117 0.168735
145 1 9.65822 7.09755 0.0285856
149 1 9.69305 7.68739 5.01861
138 1 9.98156 6.72162 3.78964
152 1 11.1635 7.28963 5.94632
158 1 10.8203 7.13351 10.4509
164 1 11.1843 7.96754 9.50088
79 1 10.8925 6.84888 11.7816
172 1 9.95667 10.1403 4.38302
173 1 10.8457 11.1771 4.8243
176 1 11.966 10.6431 5.58925
175 1 9.46581 9.14931 5.21904
182 1 11.9841 9.9473 8.03442
186 1 11.7194 10.962 7.07144
185 1 9.19332 11.7305 7.35345
187 1 10.7466 10.1098 10.3399
190 1 11.4535 11.308 10.6192
191 1 9.45637 9.72583 10.922
183 1 11.3523 9.38462 9.28902
ITEM: TIMESTEP
4000
ITEM: NUMBER OF ATOMS
191
ITEM: BOX BOUNDS pp pp pp
-1.8619681139485461e-01 1.2186196811394860e+01
-1.8619681139485461e-01 1.2186196811394860e+01
-1.8619681139485461e-01 1.2186196811394860e+01
ITEM: ATOMS id type x y z
12 1 0.876866 0.62439 4.94073
118 1 -0.116477 0.567027 4.0171
11 1 0.665704 0.636167 7.41175
32 1 1.42413 0.476717 8.69616
17 1 2.34416 2.0975 6.25366
31 1 2.87987 0.72392 8.99723
13 1 1.30377 1.25484 6.23246
28 1 0.519483 0.696808 9.78539
29 1 0.249127 2.04219 10.2111
30 1 1.27182 2.64554 10.8546
38 1 2.42357 1.90599 11.0265
7 1 0.117498 4.47201 1.32177
6 1 0.775738 3.69831 0.319943
45 1 0.917178 5.35996 1.94103
4 1 1.71039 2.81867 0.91874
14 1 2.05933 3.48658 6.62306
22 1 0.726909 3.66542 6.97132
63 1 0.515622 4.11864 8.32997
66 1 1.63914 4.88125 9.06799
34 1 1.05085 4.06637 11.3234
64 1 1.47068 5.17005 10.4622
39 1 0.284697 8.3892 0.744786
43 1 2.58554 8.07783 0.366463
42 1 1.4928 7.96569 1.30728
41 1 1.54338 7.6724 2.70218
40 1 1.17897 6.2395 2.95636
54 1 2.68725 6.94176 5.2308
50 1 2.04002 8.73121 3.43341
52 1 1.11031 6.65468 5.07783
53 1 0.371382 6.05217 4.0159
71 1 0.844899 6.88563 7.40672
67 1 1.89437 7.60583 8.23196
59 1 0.283629 7.14033 6.1577
108 1 1.42089 8.86432 8.71578
77 1 1.93261 6.35749 10.8909
76 1 2.03166 7.64991 11.4136
75 1 1.21709 8.82242 11.0303
89 1 0.919019 10.5645 0.437635
84 1 1.21316 10.6534 1.78191
83 1 1.98836 10.09 2.86446
96 1 0.948583 10.607 5.41519
21 1 1.66107 11.8066 4.88479
20 1 2.90564 11.855 4.34914
109 1 0.406707 9.51776 8.25693
107 1 1.89164 9.363 9.92068
105 1 0.156555 11.9744 10.5183
80 1 0.550957 9.41852 12.188
3 1 4.2132 0.543872 1.8537
1 1 3.50756 1.40625 1.01552
2 1 5.51524 0.705957 2.51541
5 1 3.00574 2.57497 1.5696
16 1 3.87022 0.127069 5.20033
18 1 3.64937 1.40561 5.86917
9 1 5.71787 2.72853 7.49267
10 1 4.72688 2.12777 6.5668
26 1 5.8911 0.596737 8.97989
25 1 3.07728 1.92467 9.78969
36 1 3.05993 1.0541 11.9668
48 1 4.41491 5.01516 0.549539
8 1 3.73205 3.6269 2.36833
46 1 4.56411 4.67242 1.91057
44 1 5.51039 5.45024 2.7122
58 1 5.91593 4.6587 5.84765
56 1 5.11025 5.84613 5.72627
51 1 3.5842 5.71577 5.76168
57 1 2.93431 4.82028 6.91528
70 1 2.96923 5.39395 8.46136
78 1 4.82284 4.47196 11.662
68 1 3.95894 4.63816 9.22559
69 1 4.67903 5.14731 10.3665
27 1 3.39975 3.27513 9.29033
37 1 5.68204 3.26784 11.7567
47 1 4.79984 7.80273 2.52296
82 1 4.74397 8.53836 1.25024
90 1 3.55144 8.97224 0.664284
92 1 4.34132 8.54432 3.76986
55 1 5.96627 7.27305 5.79275
60 1 3.10235 8.00235 4.36214
49 1 5.85309 6.79849 3.04597
73 1 4.16956 7.81325 8.76071
62 1 5.55757 7.5011 8.22974
61 1 5.61431 8.11512 6.87415
65 1 3.08828 6.92243 8.39798
72 1 5.5293 6.29819 10.3219
102 1 4.41277 8.92288 9.61352
88 1 3.59868 11.7525 2.01528
85 1 3.46181 10.7832 0.673309
91 1 5.89487 9.15193 0.903804
95 1 5.31562 9.61514 4.23268
94 1 5.13994 11.852 5.27421
97 1 5.1855 10.4055 5.47942
87 1 3.07129 11.1393 3.16061
93 1 5.28921 9.63244 6.77456
100 1 5.32582 10.4568 8.02528
106 1 4.97503 11.8717 8.57144
98 1 3.56155 11.1824 10.5099
103 1 3.42877 11.7135 11.7908
99 1 3.31938 9.67104 10.1565
101 1 5.59076 9.61215 9.18858
33 1 3.7031 11.9751 9.33579
114 1 8.76724 2.09793 0.401887
123 1 8.65234 0.649686 4.76543
19 1 6.31742 0.279201 3.47561
15 1 6.43677 -0.136344 4.81078
24 1 6.03808 2.10023 8.76213
129 1 8.3567 0.0966899 9.40929
137 1 7.05788 0.372579 9.87497
134 1 6.82849 2.76791 11.0728
35 1 6.81908 2.86609 9.6958
147 1 7.76738 4.5575 2.27928
139 1 8.90037 5.18938 2.1205
141 1 6.67711 4.58035 3.2916
150 1 8.24102 3.70025 5.07244
156 1 6.9028 4.3344 4.77439
151 1 8.46523 5.30537 7.28435
166 1 7.52281 4.32251 7.81944
23 1 6.37324 4.0388 7.09749
165 1 8.65418 4.53101 9.98715
136 1 8.86216 4.08444 11.3663
167 1 7.60734 3.96649 9.16449
130 1 8.00054 2.92496 11.8555
171 1 8.08545 8.43301 1.73744
140 1 8.62354 8.47764 0.377201
142 1 8.13625 7.48608 2.65415
144 1 7.08525 7.26731 3.58632
148 1 7.2598 7.23743 5.03077
154 1 8.65897 7.06289 5.69487
153 1 8.50709 6.60803 6.94009
162 1 8.82533 7.59639 7.92085
184 1 8.504 9.06447 7.69855
160 1 7.55426 6.90287 9.69563
74 1 6.29725 6.7091 9.23983
81 1 5.87068 6.70237 11.6083
159 1 8.84319 6.82951 9.2012
169 1 6.93169 9.27026 1.83252
174 1 7.81897 10.5084 3.56667
170 1 6.61314 9.92381 3.23112
121 1 7.72374 12.1806 5.34914
177 1 8.67094 9.7364 6.36806
178 1 8.3156 11.2684 6.30175
180 1 8.07315 10.0253 8.7888
181 1 8.444 11.2825 8.56104
185 1 8.98941 11.9062 7.38179
104 1 6.94961 9.62724 9.68505
110 1 7.15054 9.63866 11.1312
188 1 8.33153 9.64842 11.7819
86 1 6.13465 9.56678 11.9999
115 1 10.7749 1.72713 2.14909
112 1 10.0236 1.85831 1.01659
116 1 12.0892 1.09531 2.6556
111 1 10.0704 2.06163 3.42532
120 1 9.9423 0.941708 4.31953
126 1 11.0222 0.0654581 4.47071
127 1 10.0758 0.330017 7.87367
189 1 11.5654 0.227944 7.53503
135 1 10.2024 2.14686 9.47936
132 1 11.5257 2.71578 9.60151
131 1 9.45742 1.04488 8.9922
119 1 9.99916 4.74629 1.18088
117 1 11.1743 4.33934 1.81416
113 1 9.76205 4.4703 -0.0891237
146 1 10.9717 4.41896 3.15811
124 1 9.57919 3.75624 5.0861
128 1 10.3082 3.3143 3.91927
157 1 11.245 5.79 3.76512
161 1 10.4519 4.84765 8.47101
155 1 9.70394 4.5357 7.23957
122 1 11.9062 3.61938 6.26593
125 1 10.3578 4.07901 6.1217
133 1 11.549 4.02284 8.94576
163 1 9.51915 5.53409 9.31084
168 1 11.6855 7.36123 0.531888
143 1 9.08439 6.48636 2.86081
145 1 9.40952 7.31416 0.0225272
149 1 9.94761 7.58181 5.0437
138 1 10.1839 6.73647 3.83704
152 1 11.2927 7.56328 5.95061
158 1 10.8472 7.47308 10.5433
79 1 10.658 7.14465 11.9368
164 1 10.67 8.12725 9.32789
172 1 10.055 10.126 4.29781
173 1 10.999 11.0865 4.7998
176 1 11.8793 10.6536 5.77941
179 1 9.17462 10.4826 3.33389
175 1 9.52023 9.13528 5.24073
182 1 11.5249 10.1354 8.12421
186 1 11.5659 11.1388 7.02038
187 1 10.6066 10.2951 10.5736
190 1 11.5227 11.2207 10.8518
191 1 9.46556 10.2741 11.33
183 1 10.8565 9.69273 9.33938
ITEM: TIMESTEP
5000
ITEM: NUMBER OF ATOMS
191
ITEM: BOX BOUNDS pp pp pp
-1.0741237424328873e-01 1.2107412374243307e+01
-1.0741237424328873e-01 1.2107412374243307e+01
-1.0741237424328873e-01 1.2107412374243307e+01
ITEM: ATOMS id type x y z
4 1 1.63705 2.70274 1.17655
12 1 1.09205 0.96939 4.8105
118 1 -0.0235802 0.925887 3.78429
11 1 0.835303 1.05 7.20281
32 1 1.44117 0.721345 8.47818
17 1 2.39816 2.50737 6.00862
31 1 2.8594 0.628633 8.70602
13 1 1.32245 1.61928 6.01198
28 1 0.639874 0.852131 9.57751
29 1 0.400728 2.09224 10.138
30 1 1.5247 2.70753 10.8982
38 1 2.69617 1.97662 10.8663
7 1 0.440559 4.76118 1.37634
6 1 1.0681 3.86904 0.553907
45 1 1.29817 5.51944 2.13191
14 1 2.07946 3.8138 6.37742
22 1 0.736772 3.94439 6.92975
63 1 0.58334 4.19983 8.37615
70 1 2.99424 5.29733 8.32585
34 1 1.44433 4.01693 11.4658
64 1 1.54994 5.1297 10.5552
66 1 1.62001 4.93285 9.07688
39 1 0.0264182 8.41546 0.917644
43 1 2.34775 8.23016 0.685084
42 1 1.21217 8.17424 1.58855
54 1 2.8117 6.8928 5.21101
50 1 2.23293 8.77256 3.66026
52 1 1.18812 6.49878 5.50167
53 1 0.493916 5.97734 4.28815
40 1 1.3201 6.38646 3.20582
41 1 1.4957 7.83076 2.88054
71 1 0.621242 6.87441 7.90191
67 1 1.685 7.60954 8.49026
59 1 0.320691 7.03348 6.43124
108 1 1.5362 8.94939 8.82869
77 1 1.66206 6.49901 10.9736
76 1 1.95844 7.78795 11.611
75 1 1.33758 9.02653 11.1235
89 1 0.721613 10.7604 0.79347
84 1 1.18119 10.5531 2.1438
80 1 0.467539 9.49033 -0.0288811
96 1 1.12331 10.8811 5.31803
21 1 1.80441 11.9894 4.78098
83 1 2.182 10.0912 3.0504
109 1 0.56973 9.56173 8.05279
107 1 2.02351 9.52989 9.97632
105 1 0.277359 12.0033 10.4004
3 1 4.32952 0.529084 1.83583
1 1 3.55999 1.4122 1.03227
2 1 5.53054 1.01242 2.53384
5 1 2.96669 2.53466 1.65805
16 1 4.05645 0.374868 5.19039
18 1 3.75921 1.73448 5.81307
10 1 4.63918 2.01649 6.7686
25 1 3.13871 1.86407 9.4745
36 1 3.27281 0.978861 11.9298
37 1 5.47483 3.0658 11.371
48 1 4.46076 4.77325 0.470917
8 1 3.68243 3.5174 2.28454
46 1 4.47505 4.55867 1.82558
44 1 5.34109 5.13005 2.73561
58 1 5.97424 4.55993 5.6557
56 1 5.26046 5.87764 5.73216
51 1 3.73546 5.85897 5.73543
57 1 2.98854 5.01831 6.70474
27 1 3.82064 2.98038 8.90685
68 1 3.88197 4.37319 9.06006
78 1 4.66293 4.18653 11.4226
69 1 4.6187 4.77335 10.2497
47 1 4.66091 7.82049 2.64894
82 1 4.52465 8.71384 1.41128
49 1 5.44991 6.65439 2.81547
92 1 4.60193 8.37949 4.00442
60 1 3.10144 8.19334 4.71272
73 1 4.13401 7.77004 8.76451
62 1 5.37826 7.39816 8.09144
61 1 5.74817 7.94909 6.81329
65 1 2.99944 7.0311 8.48402
72 1 5.10842 6.09377 10.1511
81 1 4.91213 7.02775 11.2191
102 1 4.32969 8.92141 9.62484
74 1 6.00938 6.45324 9.14878
88 1 3.80795 11.4929 1.94028
85 1 3.44437 10.8361 0.56239
91 1 5.74267 9.27286 0.998769
90 1 3.35946 9.31468 0.736868
95 1 5.31166 9.64092 4.17112
94 1 5.36879 11.7071 5.47021
97 1 5.44102 10.3199 5.4759
87 1 3.36387 11.0438 3.24691
20 1 3.15382 11.7432 4.47437
93 1 5.56109 9.49881 6.57597
100 1 5.41698 10.4383 7.9137
106 1 5.26485 11.887 8.43138
98 1 3.63307 11.2462 10.3214
103 1 3.43869 11.7601 11.6785
99 1 3.49778 9.94412 10.0994
86 1 5.98686 9.72038 11.8748
101 1 5.51238 9.50681 9.07673
33 1 3.94158 11.9602 9.13637
114 1 8.66085 1.73511 0.343349
123 1 8.88067 0.909155 5.11454
15 1 6.59841 0.171425 4.99003
19 1 6.30942 0.885298 3.61236
121 1 7.90718 -0.0870941 5.52012
24 1 6.2385 1.95071 8.47335
26 1 6.22731 0.664233 8.84913
9 1 5.68294 2.66379 7.33758
129 1 8.70665 0.00672557 9.56682
137 1 7.30511 0.37194 9.69257
134 1 6.60354 2.51008 10.8549
130 1 7.94951 2.5782 11.5386
35 1 6.81217 2.75766 9.39744
147 1 7.71474 4.5813 2.42554
139 1 8.98812 5.21107 2.23148
141 1 6.49095 4.41031 3.23424
150 1 8.1032 4.03153 4.94748
156 1 6.7007 4.03809 4.59052
151 1 8.41812 5.10196 7.19074
166 1 7.47672 4.22448 7.61833
23 1 6.40632 3.78475 6.82912
167 1 7.61612 3.80062 8.98108
165 1 8.52303 4.37691 9.89026
136 1 8.72178 3.8827 11.1927
171 1 7.86793 8.37078 1.73235
140 1 8.3483 8.40962 0.4444
142 1 7.96238 7.29076 2.62253
144 1 6.89765 6.93794 3.43768
148 1 7.08302 7.13796 4.77244
154 1 8.41767 7.04123 5.40618
55 1 5.97718 7.1329 5.6884
153 1 8.35675 6.55829 6.74621
162 1 8.61884 7.48109 7.80261
184 1 8.35076 8.93636 7.66913
159 1 8.62482 6.66114 9.00013
160 1 7.34001 6.5308 9.44337
169 1 6.67139 9.17728 1.96081
174 1 7.61028 10.5907 3.67685
170 1 6.58279 9.6459 3.31166
179 1 8.94911 10.4985 3.57007
177 1 8.6969 9.63596 6.42775
178 1 8.38997 11.0037 6.41071
180 1 7.9973 9.66754 8.84466
181 1 8.77467 10.9537 8.86772
104 1 6.86886 9.45506 9.60927
110 1 7.11131 9.56279 11.0154
188 1 8.31235 9.41274 11.7091
115 1 10.6947 1.91909 2.18282
112 1 9.72345 1.74463 1.23738
116 1 12.0596 1.40468 2.48074
111 1 10.147 2.30686 3.44638
120 1 9.96469 1.16434 4.34515
126 1 11.0587 0.265809 4.35329
127 1 9.96233 0.415655 7.74245
189 1 11.452 0.177395 7.29978
131 1 9.71547 0.932076 9.0202
135 1 10.275 2.09044 9.50305
132 1 11.4709 2.90902 9.78346
119 1 10.0493 4.81503 1.2599
117 1 11.3061 4.49521 1.79746
113 1 9.56535 4.4384 -0.019912
146 1 11.1427 4.5063 3.30073
124 1 9.63222 3.81939 5.05399
128 1 10.1544 3.67758 3.8429
157 1 11.3758 5.8129 3.97469
161 1 10.4721 4.79195 8.6463
155 1 9.82114 4.64471 7.27722
125 1 10.4285 3.84376 6.26401
133 1 11.5653 4.08303 9.00834
122 1 11.7743 3.72244 6.1812
163 1 9.39693 5.36198 9.40072
168 1 11.4672 7.3483 0.691449
143 1 9.15436 6.47211 2.80988
145 1 9.09831 7.28018 0.267758
149 1 9.93622 7.62651 5.10506
138 1 10.3533 6.91429 3.74327
152 1 11.1513 7.36978 6.12059
158 1 10.6671 7.31163 10.6593
79 1 10.4273 7.16741 12.0431
164 1 10.9694 8.14337 9.68551
172 1 9.98198 10.2418 4.52436
173 1 11.0221 11.0892 4.81776
176 1 11.9877 10.7052 5.75669
175 1 9.6626 9.1861 5.40014
182 1 11.5178 10.0797 8.17742
186 1 11.5416 11.0498 7.11901
185 1 9.13381 11.4746 7.50302
187 1 10.6478 10.3333 10.5256
190 1 11.33 11.4458 10.8047
191 1 9.56912 9.9254 11.2121
183 1 10.9225 9.52092 9.34905
ITEM: TIMESTEP
6000
ITEM: NUMBER OF ATOMS
191
ITEM: BOX BOUNDS pp pp pp
-1.1216244990759290e-01 1.2112162449907625e+01
-1.1216244990759290e-01 1.2112162449907625e+01
-1.1216244990759290e-01 1.2112162449907625e+01
ITEM: ATOMS id type x y z
4 1 1.91829 2.83555 1.40669
12 1 0.843875 0.612853 4.91553
118 1 -0.0980648 0.625508 3.80817
11 1 0.605728 0.869395 7.43428
32 1 1.45674 0.740356 8.57266
31 1 2.86608 0.777292 8.85298
17 1 2.35874 2.21441 6.09923
13 1 1.1063 1.41489 6.15467
28 1 0.705819 0.749 9.78292
29 1 0.35069 2.06136 10.034
30 1 1.33259 2.58599 10.96
38 1 2.64292 1.83642 10.9686
7 1 0.333766 4.71973 1.46651
6 1 1.09573 3.82759 0.718371
45 1 1.10412 5.45445 2.32444
14 1 2.16261 3.6304 6.42588
22 1 0.774379 3.88502 6.96895
63 1 0.505412 4.32629 8.34645