ITEM: TIMESTEP
1000
ITEM: NUMBER OF ATOMS
191
ITEM: BOX BOUNDS pp pp pp
0.0000000000000000e+00 1.2000000000000000e+01
0.0000000000000000e+00 1.2000000000000000e+01
0.0000000000000000e+00 1.2000000000000000e+01
ITEM: ATOMS id type x y z
12 1 1.20509 0.848646 4.8824
1 1 2.45416 2.21262 3.44646
118 1 0.0568909 0.931156 4.21542
31 1 2.7963 1.20012 8.59879
32 1 1.33362 1.11411 8.47168
11 1 0.524598 1.20419 7.34151
17 1 2.71238 2.40746 6.16634
13 1 1.38231 1.67759 6.10224
28 1 0.600435 1.06936 9.68613
29 1 0.380463 2.49177 10.0643
30 1 1.54051 2.88833 10.6729
38 1 2.76966 2.1392 10.5977
4 1 2.18611 3.42645 1.49308
6 1 1.37529 4.1638 0.681185
7 1 0.316389 4.7799 1.23673
5 1 2.72351 3.38718 2.80547
53 1 0.358511 5.83537 4.1516
14 1 2.48962 3.77126 6.47623
22 1 1.04066 4.12647 6.92577
63 1 0.861504 4.89394 8.19573
34 1 1.60511 4.1806 11.3394
64 1 1.84804 5.17285 10.4568
66 1 1.97643 4.87993 9.13738
39 1 0.181589 8.50532 0.712513
43 1 2.65505 8.15867 0.868042
42 1 1.41328 7.99508 1.5577
45 1 0.410238 6.0196 1.6437
40 1 0.607622 6.50916 2.98891
41 1 1.37971 7.70322 2.91852
54 1 2.3679 6.52629 5.21292
50 1 2.14686 8.46843 3.69532
52 1 1.04645 6.21113 5.25484
60 1 2.43505 7.90596 4.88676
59 1 0.319578 6.54721 6.41356
67 1 1.82448 7.31926 8.10585
71 1 0.824954 6.39916 7.65354
108 1 1.50378 8.72625 8.5489
75 1 1.63839 8.73584 10.9
76 1 2.39605 7.75422 11.4558
77 1 2.36185 6.3648 11.1126
89 1 1.68557 10.4378 0.778156
84 1 1.26087 10.293 2.26055
96 1 1.39937 10.5244 5.80047
21 1 1.92503 11.6793 5.0829
83 1 1.97272 9.86486 3.45811
109 1 0.460584 9.13924 7.92927
107 1 1.96788 9.23301 9.68906
80 1 0.964113 9.47731 11.8748
3 1 3.46182 1.23958 3.5408
16 1 4.12741 0.164967 5.50129
2 1 4.94593 1.47411 3.18049
9 1 5.79569 2.82726 7.153
24 1 5.70492 2.43076 8.65892
26 1 5.83625 0.933983 8.58776
10 1 5.33926 2.06308 6.16372
18 1 3.95423 1.52412 6.0336
25 1 3.47206 2.22466 9.36298
36 1 3.1563 1.05003 11.3995
48 1 4.33373 4.65548 0.709691
44 1 5.99016 5.22315 2.44868
46 1 4.83482 4.57961 2.03733
8 1 3.91788 4.06314 2.96916
58 1 5.89245 4.77236 5.62939
56 1 5.05263 5.94244 5.47293
51 1 3.61934 5.79543 5.77172
70 1 3.40603 5.25056 8.37877
57 1 3.29911 4.88631 6.83742
78 1 5.12797 4.29346 11.5245
68 1 4.40579 4.42649 9.42396
69 1 5.059 5.21573 10.3426
27 1 4.47806 3.0505 9.22505
47 1 5.19546 7.94796 2.43487
82 1 4.90455 8.78538 1.39948
92 1 5.0144 8.61295 3.70179
55 1 5.95341 7.18716 5.53858
73 1 4.19161 7.74413 8.55678
62 1 5.53684 7.49362 7.95057
65 1 3.19209 6.8109 8.4114
61 1 5.63671 8.06901 6.60218
72 1 5.55993 6.5066 10.3029
81 1 5.54413 7.76087 11.0694
88 1 3.49987 11.0428 2.1632
85 1 3.16455 10.4098 1.00517
91 1 5.91697 9.71594 1.04399
90 1 3.67653 9.11918 1.0001
94 1 5.51007 11.7138 5.47563
97 1 5.54044 10.2859 5.25334
87 1 3.11333 10.7168 3.43176
20 1 3.18504 11.8843 4.2963
95 1 5.89847 9.73487 4.04418
93 1 5.64775 9.60237 6.45837
100 1 5.39615 10.4731 7.59658
101 1 5.51693 9.71445 8.84227
106 1 4.93343 11.8978 7.96221
33 1 3.59975 11.9983 8.55921
98 1 3.50555 11.1841 9.68144
103 1 3.22428 11.7935 10.9441
99 1 3.27887 9.79207 9.59418
102 1 4.32834 9.07969 9.01661
114 1 8.60925 1.0636 0.341457
15 1 6.28686 1.03729 5.36838
19 1 6.14573 1.31933 3.9212
121 1 7.76238 0.614062 5.91285
128 1 8.88866 2.97665 3.70562
129 1 8.35478 0.18746 9.37563
130 1 8.26103 2.13424 11.4211
137 1 7.02759 0.504277 9.32774
134 1 6.96563 2.54662 10.8961
35 1 6.87822 2.8466 9.43909
147 1 8.12484 3.78741 2.81579
139 1 8.95702 4.71955 2.11283
141 1 6.86754 4.534 3.29409
150 1 8.14886 4.52859 5.47536
156 1 6.87198 4.6036 4.71775
151 1 8.27125 5.07366 6.80782
166 1 7.22697 4.60737 7.64401
23 1 6.11789 4.13615 6.99852
167 1 7.57641 4.01855 8.90824
165 1 8.33637 4.89564 9.7276
37 1 6.09022 3.28999 11.648
49 1 6.32647 6.66491 2.15676
140 1 7.99375 7.68454 0.383597
142 1 8.58072 7.38481 2.5869
145 1 6.96274 6.67636 0.681379
171 1 8.11027 8.45739 1.63405
144 1 7.31434 7.04926 3.2988
148 1 7.18411 7.1601 4.73754
154 1 8.35935 7.1502 5.53352
153 1 8.1698 6.55922 6.73473
162 1 8.58165 7.49694 7.74916
184 1 8.14193 8.93666 7.51019
188 1 7.99517 8.26872 11.0671
74 1 6.48352 6.90777 9.14608
160 1 7.81743 7.2395 9.89896
169 1 7.09657 9.53003 1.87342
174 1 7.97704 10.9841 3.56656
170 1 6.93637 10.1165 3.21665
177 1 8.34338 9.55504 6.12299
178 1 8.10362 11.1346 6.34415
180 1 7.89147 9.70405 8.60484
181 1 8.60636 10.9521 8.71045
185 1 8.91145 11.4014 7.40967
104 1 6.73251 9.58153 9.41521
110 1 6.49943 9.08283 10.8292
86 1 6.07477 10.1283 11.7812
115 1 10.3233 1.23323 2.44296
116 1 11.6482 0.993539 2.82226
112 1 9.70433 1.22206 1.2498
111 1 9.4857 1.66562 3.53701
126 1 10.9251 0.207048 4.75638
120 1 9.76984 1.11383 4.82804
123 1 9.07273 1.35593 5.95414
127 1 9.85358 0.871564 7.35898
189 1 11.3665 0.497339 7.24559
131 1 9.26943 1.27343 8.8753
135 1 9.92736 2.45712 9.72437
136 1 9.31994 2.91918 10.9834
105 1 11.8296 0.0101488 10.1355
119 1 10.0568 4.12402 1.1601
117 1 11.2913 4.10232 1.87838
157 1 11.3328 4.9189 4.17809
124 1 9.18021 3.70881 5.01453
146 1 11.3855 3.97031 3.30822
138 1 10.2186 5.74187 3.89366
161 1 10.2777 4.94223 8.31128
155 1 9.72347 4.77316 7.05922
133 1 11.4486 4.36918 8.8939
122 1 11.7791 3.7662 6.22739
125 1 10.4313 4.01175 6.05778
163 1 9.44619 5.61201 9.18789
113 1 9.86272 3.82653 11.855
132 1 11.2015 3.12199 9.46298
143 1 9.41135 6.11047 2.82495
168 1 11.139 7.60473 0.563201
149 1 9.69535 7.6531 5.41856
152 1 10.827 7.13612 6.19421
159 1 9.168 7.09184 8.9772
158 1 11.2905 7.02504 10.2119
164 1 10.4181 7.84684 9.49228
79 1 11.2299 6.74242 11.5198
172 1 10.0074 10.0659 4.56232
173 1 11.0291 10.7553 5.07982
175 1 9.42791 9.05859 5.30838
179 1 9.28849 10.6904 3.58403
182 1 11.2861 9.8532 8.11419
186 1 11.4828 11.032 7.29613
176 1 11.9937 10.5963 6.03074
187 1 10.2157 9.88624 10.5578
190 1 10.9942 11.1135 10.7664
183 1 10.5117 9.3033 9.2034
191 1 9.03 9.33326 11.045
ITEM: TIMESTEP
2000
ITEM: NUMBER OF ATOMS
191
ITEM: BOX BOUNDS pp pp pp
-1.1160150796636513e-01 1.2111601507966380e+01
-1.1160150796636513e-01 1.2111601507966380e+01
-1.1160150796636513e-01 1.2111601507966380e+01
ITEM: ATOMS id type x y z
4 1 1.65776 2.7522 1.53749
5 1 2.894 2.60966 2.22989
12 1 1.20237 0.656801 4.91145
118 1 0.181054 0.453227 3.99768
13 1 1.26991 1.39808 6.13619
31 1 2.67926 0.942629 8.7488
32 1 1.32938 0.706297 8.55192
11 1 0.590966 0.792164 7.31039
17 1 2.55103 2.14234 6.09895
28 1 0.435084 0.910091 9.67107
29 1 0.347917 2.33687 10.2537
30 1 1.50651 2.6489 10.955
38 1 2.63716 1.91757 10.6883
7 1 0.472599 4.76182 1.51791
6 1 1.06743 3.76864 0.773716
45 1 1.05177 5.85367 2.16742
14 1 2.18699 3.58187 6.59445
22 1 0.839338 3.97215 7.11999
63 1 0.741552 4.72421 8.34245
34 1 1.47513 4.0266 11.7088
64 1 1.83416 5.06528 10.6441
66 1 1.88571 4.6756 9.26658
39 1 0.0593134 8.85962 0.886877
43 1 2.31297 8.13019 0.756389
42 1 1.27134 8.26287 1.63644
54 1 2.35376 6.54173 5.52167
50 1 2.10024 8.78536 3.9026
52 1 0.863337 6.31852 5.62339
40 1 0.908673 6.66779 3.19484
60 1 2.57034 7.90209 5.02892
53 1 0.222418 6.23882 4.34159
41 1 1.45526 7.90097 2.95555
108 1 1.41016 8.47495 8.55201
67 1 1.73842 7.11086 8.34892
71 1 0.729555 6.2132 8.09872
59 1 0.12743 6.64589 6.77803
77 1 1.94768 6.32224 11.3607
76 1 1.83448 7.67648 11.7037
75 1 1.12967 8.98882 11.0506
89 1 1.46063 10.6002 0.691154
84 1 1.3788 10.4926 2.24604
80 1 0.638269 9.71644 -0.119004
83 1 2.19856 10.0546 3.2812
21 1 1.95817 11.6397 5.00088
96 1 1.10871 10.5403 5.45622
176 1 -0.274788 10.5607 5.88033
109 1 0.254933 9.04372 8.07388
107 1 1.83022 9.08909 9.80308
3 1 5.17424 1.31478 2.0044
1 1 3.92491 1.74463 1.96793
18 1 3.91543 1.39012 5.80235
16 1 4.19582 0.00758162 5.42505
10 1 5.1547 1.88662 6.38614
24 1 5.60789 2.75405 8.65308
26 1 5.88766 0.354154 8.96293
25 1 3.3596 2.01333 9.47758
36 1 2.92987 0.764942 11.577
48 1 4.17841 4.89166 0.626772
44 1 5.51648 5.13681 2.61304
46 1 4.41261 4.64573 2.03658
8 1 3.41807 3.8384 2.72967
56 1 5.0715 5.75008 5.54147
51 1 3.54289 5.77725 5.93893
70 1 3.17673 5.09056 8.57708
57 1 3.0781 4.69202 6.97533
9 1 5.74466 2.86333 7.32569
78 1 4.90238 4.67305 11.6736
68 1 4.18986 4.42034 9.35344
69 1 4.80389 5.22752 10.3961
27 1 4.39721 2.99315 9.32882
47 1 4.93892 7.80165 2.2967
82 1 4.62324 8.61601 1.17623
90 1 3.35023 9.04853 0.749279
92 1 4.89679 8.32063 3.5351
55 1 5.74605 7.15206 5.48467
73 1 4.13796 7.66324 8.60256
62 1 5.53396 7.55311 8.0667
61 1 5.65395 8.06003 6.70643
65 1 3.17528 6.64826 8.49002
102 1 4.25338 9.06674 9.25238
72 1 5.42596 6.43673 10.1284
81 1 5.47902 7.71045 10.9688
88 1 3.52795 11.3029 1.88837
91 1 5.651 9.59441 0.982953
85 1 2.98838 10.8411 0.454087
94 1 5.59692 11.7994 5.32309
97 1 5.55464 10.3735 5.17609
20 1 3.31383 11.619 4.53102
87 1 3.25056 10.956 3.31277
95 1 5.69072 9.56987 3.95672
93 1 5.35516 9.67204 6.45852
100 1 5.23436 10.5334 7.64571
101 1 5.45451 9.86823 8.87572
33 1 3.43484 11.9301 8.97484
106 1 4.82984 11.9104 8.14992
98 1 3.28631 11.0229 10.159
103 1 3.29974 11.5976 11.4633
99 1 3.24225 9.67472 9.96407
86 1 5.90423 10.0571 11.9092
114 1 8.82465 1.86032 0.424753
2 1 6.25345 1.401 2.8019
15 1 6.86892 0.106579 4.93096
19 1 6.88793 0.637198 3.69926
121 1 8.09013 0.0449296 5.71056
129 1 8.34707 0.430025 9.47548
130 1 8.24725 2.49604 11.5159
137 1 6.86626 0.464487 9.8848
134 1 6.8321 2.74859 11.0876
147 1 7.85997 4.61876 2.35885
141 1 6.62328 4.51071 3.21413
150 1 8.23094 3.79135 5.03694
156 1 6.85995 4.28974 4.7283
58 1 5.86256 4.49029 5.7889
151 1 8.56003 5.2152 7.05729
166 1 7.60994 4.44023 7.71601
23 1 6.30725 4.08089 7.02939
167 1 7.66223 3.86107 9.01653
165 1 8.7082 4.37059 9.87466
37 1 5.81389 3.6332 11.6452
35 1 6.70732 2.94959 9.49973
171 1 7.9352 8.45977 1.4067
140 1 7.665 7.6996 0.177168
142 1 8.188 7.52209 2.61295
145 1 6.67983 6.58628 0.662458
49 1 5.97832 6.45943 2.29726
144 1 7.04396 7.09802 3.30344
148 1 7.02866 7.02602 4.75219
154 1 8.33252 6.94297 5.39615
153 1 8.42527 6.56903 6.72198
162 1 8.51956 7.54755 7.70278
184 1 8.39016 9.02253 7.55035
188 1 7.8027 8.31684 11.0591
160 1 7.76089 7.27903 9.79434
74 1 6.42469 6.80689 9.06854
159 1 8.92009 7.03008 9.02194
110 1 6.46215 8.95294 10.8314
169 1 6.88717 9.39966 1.69306
170 1 6.87331 9.92502 3.06751
174 1 8.0125 10.856 3.23237
177 1 8.94068 9.76544 6.30959
178 1 8.71344 11.1386 6.39776
180 1 7.94224 9.85418 8.80562
181 1 8.47681 11.202 8.73712
104 1 6.69199 9.67665 9.53154
191 1 8.91809 9.45879 10.8555
115 1 10.8649 1.49702 2.13993
112 1 9.92254 1.43743 1.0547
116 1 12.2043 0.829261 2.65139
111 1 10.2278 2.12844 3.43291
126 1 11.1554 0.148699 4.5702
120 1 10.2209 1.16411 4.50266
123 1 9.03445 0.970372 5.32326
127 1 10.1756 0.57085 7.96293
189 1 11.5174 0.190139 7.37542
135 1 10.1093 2.48502 9.87837
131 1 9.54847 1.31579 9.08451
119 1 10.0116 4.79711 1.14985
117 1 11.2568 4.54938 1.85024
139 1 9.04067 5.36036 1.97842
146 1 10.9972 4.57678 3.22071
124 1 9.718 3.70943 5.05749
128 1 10.4873 3.40503 3.85786
157 1 11.195 5.7938 3.91304
161 1 10.4595 5.10601 8.44074
155 1 9.90151 4.8146 7.16633
125 1 10.5347 4.15976 6.11622
122 1 11.8134 3.78896 6.35733
133 1 11.6372 4.36949 8.8894
163 1 9.36621 5.56516 9.17516
136 1 9.33131 3.32287 10.8291
113 1 9.79792 4.26277 12.0926
132 1 11.4404 3.02587 9.60433
143 1 9.27709 6.61471 2.75774
168 1 10.9965 8.02517 0.833665
149 1 9.46906 7.5716 4.79732
138 1 10.1223 6.76064 3.82296
152 1 11.3331 7.44927 6.67359
158 1 11.0732 7.38666 10.5204
164 1 10.4146 7.90758 9.36356
79 1 10.7496 7.42051 11.8126
172 1 10.1375 10.159 4.38364
173 1 11.1711 11.0016 4.8335
179 1 9.38391 10.7487 3.36383
175 1 9.53119 9.159 5.15523
182 1 11.4301 9.94648 8.09784
186 1 11.5048 10.9368 7.17036
185 1 9.34304 11.5427 7.65604
187 1 10.0982 9.96895 10.1951
190 1 10.6939 11.1336 10.4551
105 1 11.5404 12.0956 10.1593
183 1 10.5452 9.30306 9.07211
ITEM: TIMESTEP
3000
ITEM: NUMBER OF ATOMS
191
ITEM: BOX BOUNDS pp pp pp
-2.3579274572745268e-01 1.2235792745727462e+01
-2.3579274572745268e-01 1.2235792745727462e+01
-2.3579274572745268e-01 1.2235792745727462e+01
ITEM: ATOMS id type x y z
4 1 1.9628 2.79851 1.69084
12 1 1.16578 0.415805 4.98295
118 1 -0.0279619 0.519228 3.95869
17 1 2.38791 2.1171 6.21015
32 1 1.20512 0.858606 8.74595
11 1 0.563784 0.722117 7.43607
31 1 2.6607 0.58926 8.83186
13 1 1.31175 1.27084 6.14483
28 1 0.217471 0.81503 9.93698
29 1 0.0674303 2.14722 10.4189
30 1 1.36265 2.51242 11.2448
38 1 2.62554 1.74391 11.0558
36 1 2.82732 0.319455 11.5743
7 1 0.288545 4.53772 1.6315
6 1 1.16798 3.60432 0.952471
45 1 0.958131 5.69316 2.24171
14 1 2.15133 3.62459 6.53318
63 1 0.410319 5.00622 8.94661
22 1 0.590165 3.98812 6.45922
34 1 1.38823 3.70493 12.1083
64 1 1.35654 4.97241 11.5043
66 1 1.2738 4.9404 10.0972
42 1 1.22022 8.39213 1.50268
39 1 0.120905 8.81184 0.692852
43 1 2.45724 8.31718 0.869989
41 1 1.16931 7.88034 2.84929
54 1 2.1377 6.71584 5.47223
50 1 2.0153 8.83385 3.6808
52 1 0.711182 6.42432 5.46226
40 1 0.63197 6.74073 3.09035
60 1 2.43246 8.02175 4.895
53 1 -0.123093 6.33191 4.21599
108 1 1.40644 8.36301 8.80607
67 1 1.66237 6.9617 8.55209
59 1 0.0812305 6.58609 6.85444
71 1 0.687644 6.07091 7.98018
77 1 1.68628 6.2959 12.0497
76 1 2.18305 7.6641 12.0527
75 1 1.63396 8.70012 11.1938
107 1 2.00396 9.06938 9.89345
89 1 1.68354 10.6373 0.440994
84 1 1.4462 10.6684 1.86972
83 1 2.34891 10.0781 2.97527
21 1 1.78922 11.5358 5.14225
96 1 1.09807 10.5717 5.79561
109 1 0.44759 9.13808 8.16439
80 1 0.809264 9.68907 12.1961
3 1 4.84204 0.349037 2.12028
1 1 3.81429 1.184 1.97116
5 1 3.3162 2.42829 2.13408
16 1 4.02249 -0.0774576 5.45347
10 1 4.87566 1.79827 6.56634
24 1 5.45169 2.79892 8.58915
18 1 3.75115 1.25825 6.06512
26 1 5.82454 0.173853 8.86936
9 1 5.68568 2.69479 7.13556
25 1 3.2924 1.92292 9.54514
48 1 4.43734 4.96673 0.171021
44 1 5.556 5.36215 2.47746
46 1 4.59597 4.77515 1.63103
8 1 4.14309 3.48098 2.08692
51 1 3.35625 5.71377 5.7768
58 1 5.71538 4.51349 5.20732
56 1 4.90197 5.82851 5.51984
70 1 3.32109 5.18594 8.10779
57 1 3.09543 4.63346 6.77192
27 1 4.05186 3.01212 8.99851
78 1 4.67377 4.29329 11.4767
68 1 3.74019 4.42718 9.25022
69 1 4.59999 4.92838 10.3595
37 1 5.80941 3.24713 11.5396
47 1 4.93481 8.0638 2.32776
49 1 5.71331 6.79127 2.49093
82 1 4.83169 8.89834 1.23006
55 1 5.78141 6.96862 5.68385
92 1 5.25454 8.82741 3.57397
73 1 4.1284 7.48643 8.64706
62 1 5.68853 7.4082 8.08788
61 1 5.55194 8.0509 6.61457
65 1 3.00411 6.62769 8.41902
102 1 4.2695 8.73679 9.20718
72 1 5.75049 6.09191 10.2879
88 1 4.48778 11.4133 2.5981
91 1 5.94495 9.63947 0.789808
85 1 2.92099 10.5105 0.150981
90 1 3.5588 9.21713 0.92269
94 1 5.47758 11.7775 5.49167
97 1 5.71255 10.3935 5.30113
20 1 3.20015 11.5959 4.67638
87 1 3.43152 10.9642 3.43537
93 1 5.58632 9.56187 6.51365
100 1 5.28913 10.2966 7.70598
33 1 3.62042 11.9035 8.92688
106 1 4.99727 11.7093 8.2432
101 1 5.49735 9.46814 8.86664
99 1 3.26908 9.58446 9.72885
98 1 3.48465 10.9627 10.0566
103 1 3.15722 11.4715 11.4193
114 1 8.69682 2.08952 0.138371
2 1 6.0372 0.760699 2.74968
15 1 6.59051 0.121051 5.16618
19 1 6.4645 0.812882 4.02144
123 1 8.74433 0.834929 5.33712
121 1 7.97055 -0.255346 5.7977
137 1 6.87761 0.626101 9.59099
130 1 8.0892 2.64177 11.4145
129 1 8.21061 0.235272 9.54231
147 1 7.72244 4.51345 1.96876
141 1 6.65857 4.56105 2.92407
139 1 8.89767 5.38389 1.76406
156 1 6.81933 4.27622 4.2171
150 1 8.23311 3.94865 4.65929
151 1 8.3848 5.44457 6.94492
166 1 7.22642 4.59379 7.4648
23 1 6.32082 3.9819 6.53826
167 1 7.43371 4.19406 8.77941
165 1 8.50051 4.70851 9.66865
35 1 6.5356 3.28535 9.34144
134 1 6.81161 2.88694 10.7032
171 1 7.8102 8.37012 1.38953
140 1 7.90703 8.0231 0.0813067
142 1 7.98608 7.47458 2.45616
145 1 7.46708 6.66899 -0.195586
144 1 6.89277 7.15922 3.26713
148 1 6.97064 7.24313 4.75489
154 1 8.20092 7.29192 5.36641
153 1 8.2354 6.94428 6.8382
162 1 8.67878 7.82999 7.84096
188 1 8.04947 8.7839 11.2975
160 1 7.69552 7.52172 10.056
74 1 6.52122 6.91574 9.34819
81 1 6.36034 6.26741 11.6769
159 1 8.96067 7.28287 9.18897
169 1 7.08488 9.55046 1.73159
174 1 8.31177 10.9704 3.0873
170 1 7.114 10.2232 2.94395
95 1 6.14887 9.90994 4.00075
177 1 8.89904 9.71139 6.37893
178 1 8.70794 11.2938 6.47512
180 1 7.95797 10.1341 8.77272
181 1 8.44578 11.4148 8.78275
184 1 8.44329 9.21159 7.74194
104 1 6.6793 9.75089 9.53468
110 1 6.90216 9.70978 10.8759
86 1 6.0121 9.95842 11.9095
115 1 10.7327 1.76257 2.22335
112 1 9.72242 1.73888 1.0298
116 1 12.1603 1.04441 2.51859
111 1 10.2315 2.17864 3.57717
120 1 10.0849 1.17672 4.65104
126 1 11.1879 0.14241 4.57469
127 1 10.328 0.417401 8.04703
189 1 11.6021 0.0411126 7.65366
135 1 10.0297 2.53145 9.9115
131 1 9.46867 1.23256 9.30192
105 1 11.9689 -0.193893 10.5657
119 1 9.96164 4.77048 0.938057
117 1 11.2631 4.53943 1.72098
146 1 10.9548 4.65236 3.18608
124 1 9.52808 3.86031 4.86185
128 1 10.2694 3.56821 3.73741
157 1 11.0601 5.82527 3.92045
161 1 10.3717 5.04338 8.46268
155 1 9.75305 4.96743 7.22864
125 1 10.1915 4.15403 6.13814
133 1 11.6063 4.27028 8.81272
122 1 11.6873 3.88536 6.44854
163 1 9.30296 5.75817 9.31131
136 1 9.21083 3.5398 10.7277
132 1 11.5085 2.9984 9.72585
113 1 9.76424 4.34512 12.0137
168 1 11.5574 8.03236 0.270026
143 1 9.06318 6.63565 2.56168
149 1 9.36317 7.75276 4.64335
138 1 9.95885 6.74747 3.82242
152 1 11.4632 7.27647 6.78434
158 1 10.8008 7.07753 10.5893
164 1 10.2531 7.82507 9.56197
79 1 11.1669 7.16435 11.7834
172 1 10.3241 10.1641 4.32851
173 1 11.2358 11.2738 4.97949
179 1 9.55187 10.5453 3.22989
175 1 9.59606 9.16756 5.13329
182 1 11.6954 9.80933 8.35188
186 1 11.8418 11.0821 7.37116
185 1 9.28419 11.861 7.63891
176 1 12.1968 10.8202 6.05897
187 1 10.4401 9.94347 10.4867
190 1 11.0748 11.1666 10.7468
191 1 9.33569 9.59073 11.2272
183 1 10.7392 9.21335 9.365
ITEM: TIMESTEP
4000
ITEM: NUMBER OF ATOMS
191
ITEM: BOX BOUNDS pp pp pp
-2.0579073895872022e-01 1.2205790738958667e+01
-2.0579073895872022e-01 1.2205790738958667e+01
-2.0579073895872022e-01 1.2205790738958667e+01
ITEM: ATOMS id type x y z
5 1 2.92297 2.74205 2.53947
12 1 0.875784 0.535185 4.87434
118 1 -0.0719705 0.532832 3.74412
17 1 2.25001 1.94531 6.17763
32 1 1.26663 0.643904 8.6042
11 1 0.501723 0.479246 7.42445
13 1 1.02049 1.21008 6.1983
31 1 2.64427 0.874572 8.89041
28 1 0.272255 0.765457 9.77369
29 1 0.128069 2.09019 10.3029
30 1 1.25193 2.45565 11.1928
38 1 2.50993 1.68818 11.033
36 1 2.76036 0.429157 11.8137
7 1 0.0919739 4.71927 1.6638
6 1 0.84085 3.7105 0.866442
45 1 0.504219 5.88957 2.05628
4 1 1.72215 2.98552 1.80222
14 1 2.04794 3.37339 6.47606
63 1 0.334992 5.08169 8.76495
22 1 0.660224 3.74455 6.47015
34 1 1.17567 3.69484 11.9791
64 1 1.46284 4.88919 11.2847
66 1 1.14898 5.00743 9.89468
42 1 1.78318 8.01783 1.56947
39 1 0.485098 8.23592 0.897558
43 1 2.89454 8.08852 0.440222
41 1 1.68455 7.66147 2.87644
54 1 2.33796 6.66585 5.49381
50 1 2.27556 8.58831 3.70477
52 1 0.848511 6.52953 5.54531
40 1 0.822864 6.6912 3.10546
60 1 2.61747 8.05469 4.90401
53 1 0.0805804 6.43854 4.36454
108 1 1.31387 8.28322 8.81931
67 1 1.80804 6.99113 8.43979
59 1 0.0914416 6.53671 6.71598
109 1 0.454174 8.93876 7.90604
71 1 0.78339 6.2061 7.92635
75 1 1.46628 8.50509 11.2257
77 1 1.89626 6.14352 11.8351
76 1 2.44357 7.4378 11.6984
107 1 1.78686 9.02382 9.87108
89 1 1.66797 10.4073 0.684921
84 1 1.6791 10.5856 2.15604
80 1 0.87798 9.26036 -0.141185
96 1 1.10092 10.7191 5.55792
21 1 1.77193 11.7454 5.00392
83 1 2.49671 9.91286 3.18761
105 1 -0.178014 12.0789 10.4268
3 1 4.37653 0.652335 2.50025
1 1 3.33535 1.52503 2.6743
2 1 5.61412 1.13022 2.88018
16 1 4.11546 0.0397788 5.56535
10 1 4.77848 2.15157 6.49056
24 1 5.36442 2.72676 8.83496
18 1 3.68522 1.34332 6.11596
26 1 5.80955 0.047281 8.80597
25 1 3.1866 1.87093 9.77341
48 1 4.30137 5.00057 0.51837
44 1 5.63084 5.47638 2.50148
46 1 4.54993 4.88405 1.8058
8 1 3.93485 3.76235 2.46155
51 1 3.51494 5.6108 5.79515
58 1 5.98242 4.64013 5.573
56 1 5.12876 5.88461 5.59132
70 1 3.31581 5.06213 8.19168
9 1 5.51149 2.94786 7.38032
57 1 3.13612 4.47477 6.83473
78 1 4.70401 4.47961 11.6924
68 1 3.83093 4.5079 9.36868
69 1 4.65419 5.06252 10.3776
37 1 5.57862 3.28277 11.7726
27 1 4.04943 2.98137 9.42016
47 1 4.99307 8.13714 2.17594
49 1 5.80312 6.83087 2.46779
82 1 4.88516 9.03049 1.11561
55 1 5.83149 7.15565 5.55984
92 1 5.00136 8.78477 3.52438
73 1 4.34009 7.53174 8.64713
62 1 5.64241 7.47791 8.15222
61 1 5.76746 8.12517 6.76073
65 1 3.24966 6.52086 8.3432
72 1 5.74977 6.04869 10.2974
102 1 4.19343 8.8346 9.37858
85 1 3.02215 10.5168 -0.0224928
90 1 3.68781 9.21344 0.450037
88 1 4.20728 11.6713 2.64171
94 1 5.45124 11.8891 5.50948
97 1 5.40666 10.3921 5.32121
20 1 3.16315 11.8288 4.7629
87 1 3.35642 11.0534 3.65327
95 1 5.84365 9.81371 4.04921
93 1 5.49071 9.6052 6.51853
100 1 5.05084 10.4437 7.77984
33 1 3.5568 12.0516 8.83783
106 1 4.69957 11.7281 8.17895
101 1 5.32916 9.59332 8.99195
99 1 2.92646 9.64985 9.75442
98 1 3.11188 11.0622 10.0078
103 1 3.24442 11.5442 11.4721
114 1 8.76246 2.13956 0.189931
15 1 6.6779 0.0623298 4.9948
19 1 6.49671 0.703476 3.76793
123 1 8.9608 0.87219 5.14264
121 1 8.04213 -0.102097 5.50118
129 1 8.26928 0.181662 9.21562
137 1 6.90501 0.594257 9.38332
134 1 6.68789 2.78914 10.9983
147 1 7.90782 4.76855 2.11967
139 1 9.13471 5.65261 1.88574
156 1 6.85304 4.40857 4.42557
150 1 8.15503 4.00918 4.76102
141 1 6.72713 4.73285 2.98125
151 1 8.40129 5.28463 7.25079
166 1 7.34336 4.39987 7.59402
23 1 6.25279 3.96441 6.84481
167 1 7.3519 4.18897 9.09554
165 1 8.32231 4.90646 10.05
136 1 8.70607 4.2158 11.2642
35 1 6.55957 2.96449 9.61865
130 1 8.07987 2.92752 11.6264
171 1 8.03575 8.60085 1.27673
140 1 8.03593 8.05 -0.0578976
142 1 8.26872 7.73049 2.34332
145 1 7.25097 6.87351 -0.201322
144 1 7.07141 7.18509 3.10153
148 1 7.03003 6.96322 4.79153
154 1 8.25856 6.99575 5.45084
153 1 8.3466 6.6414 6.88685
162 1 8.438 7.7379 7.64482
188 1 8.20955 8.81123 11.1224
160 1 7.65571 7.63758 9.95661
74 1 6.51866 6.99016 9.40234
81 1 6.30282 6.13041 11.5929
159 1 9.05697 7.30875 9.27747
169 1 7.196 9.60726 1.80807
91 1 6.03918 9.85538 0.937424
174 1 8.09984 10.9465 3.29079
170 1 7.05815 10.0373 3.26318
177 1 8.53925 9.75175 6.15758
178 1 8.57948 11.107 6.19356
180 1 7.8505 10.0139 8.5468
181 1 8.52038 11.256 8.53152
184 1 8.26351 9.1344 7.46662
104 1 6.66259 9.88809 9.39648
110 1 6.96169 9.82409 10.8356
86 1 6.31622 10.3139 12.0168
115 1 10.8701 1.85472 2.13833
112 1 9.93614 1.93311 0.98955
116 1 12.1884 1.16683 2.46652
111 1 10.2995 2.2415 3.41072
120 1 9.96603 0.933879 4.16308
126 1 11.0494 -0.0953474 4.122
127 1 10.2263 0.139691 7.89157
131 1 9.46987 0.951692 8.84799
135 1 10.1829 2.12097 9.41077
132 1 11.4318 2.83028 9.50542
119 1 10.1017 4.98951 1.05695
117 1 11.1999 4.50698 1.92925
146 1 10.8645 4.63948 3.23654
124 1 9.51678 3.82757 4.98282
128 1 10.4185 3.53272 3.96054
157 1 11.1993 5.9889 4.00399
161 1 10.3089 5.02597 8.59282
155 1 9.64681 4.76106 7.39131
133 1 11.4975 4.23768 8.89335
125 1 10.388 4.10702 6.26885
122 1 11.7333 3.88266 6.48714
163 1 9.40973 5.7027 9.52516
113 1 9.67238 4.76614 12.0925
168 1 11.8302 7.47874 0.420661
143 1 9.35793 6.82684 2.58712
149 1 9.30654 7.77782 4.92864
138 1 10.0436 6.94557 3.84854
175 1 9.52485 9.21813 5.23928
152 1 11.1787 6.85121 6.76824
158 1 11.3456 7.16341 10.1725
164 1 10.5154 7.95599 9.30099
79 1 11.5952 6.96314 11.5706
172 1 10.2525 9.9972 4.35691
173 1 11.1877 10.9425 4.78514
176 1 12.0503 10.7722 5.84159
179 1 9.45505 10.4852 3.31502
182 1 11.7499 9.63125 8.00256
186 1 11.651 10.8138 7.15822
185 1 9.25707 11.5044 7.4115
183 1 10.7944 9.2914 9.07934
189 1 11.6035 12.2718 7.54396
187 1 10.3958 10.1103 10.1981
190 1 11.1717 11.283 10.3811
191 1 9.56879 9.50656 11.1288
ITEM: TIMESTEP
5000
ITEM: NUMBER OF ATOMS
191
ITEM: BOX BOUNDS pp pp pp
-1.3648479566092131e-01 1.2136484795660852e+01
-1.3648479566092131e-01 1.2136484795660852e+01
-1.3648479566092131e-01 1.2136484795660852e+01
ITEM: ATOMS id type x y z
5 1 2.85716 2.53338 2.24645
116 1 -0.0126044 1.38805 2.48237
4 1 1.20238 2.33312 1.85788
12 1 1.21901 0.677954 4.98876
118 1 0.257301 0.641675 3.78182
13 1 1.53595 1.19282 6.44289
32 1 1.40011 0.61936 8.73979
11 1 0.715381 0.723949 7.46691
31 1 2.84912 0.750255 8.89663
17 1 2.78017 2.18747 6.25498
28 1 0.42532 0.800488 9.8007
29 1 0.20509 2.10747 10.2958
30 1 1.41173 2.61976 11.1852
38 1 2.64345 1.89198 11.0102
36 1 2.92427 0.615165 11.6409
7 1 0.310783 4.73067 1.60714
6 1 0.916338 3.60178 1.10445
45 1 0.997527 5.58483 2.29309
34 1 1.27689 3.73647 -0.0996197
14 1 2.19829 3.56659 6.57868
63 1 0.608431 4.91354 8.88599
22 1 0.73056 3.76089 6.44363
66 1 1.31664 4.72518 10.0623
64 1 1.52607 4.89457 11.4203
42 1 1.34035 8.02314 1.40418
39 1 0.125411 8.68411 0.897805
43 1 2.47751 8.22359 0.51108
41 1 1.39283 7.79137 2.74455
54 1 2.44753 6.4638 5.40082
50 1 2.13508 8.58111 3.61364
52 1 0.968709 6.23879 5.60617
40 1 0.966065 6.53175 3.22772
60 1 2.66671 7.83196 4.5949
53 1 0.195564 6.20028 4.3792
108 1 1.28436 8.43419 8.58883
67 1 1.7056 7.05423 8.64409
59 1 0.196039 6.25458 6.89644
71 1 0.823727 6.0001 8.10483
75 1 1.25075 8.84958 10.9514
77 1 1.59947 6.30232 11.656
76 1 1.89355 7.67973 11.4922
89 1 1.56201 10.5026 0.547619
84 1 1.42071 10.3455 1.94651
96 1 1.12393 10.5824 5.3863
21 1 1.96882 11.6308 5.06964
83 1 2.3588 9.89754 3.05663
109 1 0.530227 9.07869 7.62024
80 1 0.701494 9.58759 12.0864
107 1 1.76198 9.25552 9.70768
105 1 0.00933306 11.9269 10.353
3 1 4.8334 0.535404 2.08901
1 1 3.81413 1.5322 1.97924
16 1 4.2596 -0.0241843 5.42902
18 1 4.03958 1.47725 6.01591
10 1 5.07412 2.06714 6.74932
24 1 5.46876 2.90128 8.89699
26 1 5.878 0.276332 8.10301
25 1 3.26286 2.0607 9.68545
48 1 4.03082 4.72384 0.720528
8 1 3.30009 3.80766 2.60401
46 1 4.2887 4.66125 2.13639
44 1 5.29411 5.48101 2.70224
56 1 4.94583 5.76813 5.59388
58 1 6.00506 4.77053 5.73736
51 1 3.48884 5.5325 5.85773
70 1 3.40977 5.28077 8.30106
57 1 3.05414 4.77399 7.01115
9 1 5.61768 3.07779 7.44841
78 1 4.80802 4.36134 11.7853
68 1 3.87362 4.45799 9.49818
69 1 4.67392 5.06988 10.4778
37 1 5.79788 3.22064 11.8331
27 1 4.16078 3.06232 9.32876
47 1 4.75526 8.00323 2.54379
49 1 5.52268 6.85928 2.86487
82 1 4.68547 8.92208 1.3439
55 1 5.47743 7.14125 5.5731
92 1 4.7778 8.90003 3.71862
73 1 3.91291 7.71773 8.65161
62 1 5.14329 7.31758 7.95397
61 1 5.43155 8.08712 6.70891
65 1 3.04823 6.66747 8.67868
102 1 4.14382 8.85932 9.35782
72 1 5.71761 6.05417 10.2073
88 1 4.43303 11.3804 2.35131
91 1 5.80214 9.64617 0.976031
90 1 3.44992 9.23966 0.670742
85 1 2.94932 10.5222 0.147807
94 1 5.67592 11.7444 5.4705
97 1 5.7373 10.2971 5.39327
20 1 3.33613 11.6229 4.54167
87 1 3.41219 10.9237 3.32684
95 1 5.89221 9.63785 4.17529
93 1 5.34108 9.58025 6.66673
100 1 5.27787 10.41 7.8183
106 1 4.77099 11.6033 8.21525
33 1 3.70055 11.9146 9.07709
101 1 5.38021 9.57419 9.03808
99 1 3.11793 9.73257 9.71826
98 1 3.53671 11.0768 10.1573
103 1 3.27742 11.4928 11.4503
114 1 8.98435 1.99486 -0.0135001
2 1 6.04412 1.11296 2.81358
15 1 6.71216 0.3203 5.20153
19 1 6.51846 1.22353 4.10112
123 1 9.02796 0.621811 4.90082
137 1 6.90221 0.67463 8.94518
129 1 8.13804 0.142061 9.31089
147 1 7.53639 4.59788 2.28815
139 1 8.8064 5.31574 1.89738
156 1 6.84966 4.31731 4.6192
150 1 8.13137 3.74759 4.83461
141 1 6.39456 4.68816 3.30302
151 1 8.54836 5.32853 6.93617
166 1 7.43308 4.72125 7.66668
23 1 6.31656 4.217 6.94775
167 1 7.65227 4.26364 9.04949
165 1 8.59975 4.90126 9.88182
136 1 8.84255 4.29284 11.1882
130 1 8.21784 2.90165 11.4875
35 1 6.64414 3.37099 9.61102
134 1 6.9094 2.98988 11.0008
171 1 7.80343 8.42934 1.62066
140 1 8.09964 8.17695 0.16293
142 1 7.89989 7.40218 2.60343
143 1 8.92146 6.51355 2.71394
144 1 6.75071 7.14347 3.48175
148 1 6.71918 7.19916 4.84287
154 1 8.09033 7.2319 5.36371
153 1 8.28689 6.68911 6.61613
162 1 8.72035 7.64323 7.60903
184 1 8.46419 9.04734 7.4978
74 1 6.20788 6.75882 8.95781
81 1 6.64171 6.25927 11.3198
160 1 7.06069 7.84264 9.10205
145 1 7.70936 6.84529 11.9356
169 1 6.84711 9.47771 1.92176
174 1 8.15189 10.7464 3.3314
170 1 6.84033 10.0404 3.13815
121 1 8.07972 12.1535 5.67056
181 1 8.359 11.1437 8.64189
178 1 8.58176 11.0327 6.25291
180 1 7.9535 9.87353 8.56575
177 1 8.91071 9.71103 6.24984
104 1 6.75824 9.28063 9.42527
110 1 7.01867 9.56641 10.935
188 1 8.24678 9.22274 11.4725
86 1 6.09333 10.0404 11.9196
115 1 10.9407 1.78032 2.0458
112 1 10.0574 1.64633 0.920761
111 1 10.3701 2.13119 3.31142
120 1 10.1995 0.888512 4.02332
126 1 11.3023 0.0153561 4.14453
127 1 10.1427 0.340838 7.71441
131 1 9.49475 1.07115 8.97764
189 1 11.562 0.189217 7.46704
135 1 10.1143 2.29137 9.45522
132 1 11.4638 2.85255 9.49609
119 1 9.95023 4.97621 1.09635
117 1 11.0472 4.64231 1.88283
146 1 10.8942 4.64458 3.36781
124 1 9.56334 3.6026 5.02238
128 1 10.3637 3.43378 3.88094
157 1 11.0865 5.91918 3.98537
161 1 10.4735 4.9661 8.29468
155 1 9.8235 4.68002 7.07671
125 1 10.3076 3.7862 6.14105
122 1 11.7076 3.74538 6.19373
133 1 11.566 4.2567 8.95822
163 1 9.57592 5.78438 9.17628
113 1 9.89326 4.85488 11.9628
168 1 11.2224 8.04613 0.756486
149 1 9.27428 7.7654 4.80859
138 1 9.89561 6.78255 3.85736
175 1 9.67959 9.02457 5.18795
152 1 11.3381 7.04831 6.94537
159 1 9.46724 7.17994 8.82534
158 1 10.743 7.51075 10.7482
164 1 10.464 8.00695 9.42296
79 1 10.6719 7.42533 12.0545
172 1 10.3173 10.0583 4.30614
173 1 11.3124 11.0161 4.56072
176 1 12.0754 10.6866 5.67612
179 1 9.4575 10.3446 3.24082
182 1 11.5657 9.86054 7.87087
186 1 11.6756 11.088 7.01015
185 1 9.19138 11.5693 7.49095
183 1 10.9002 9.37755 8.95151
187 1 10.5628 10.1871 10.1079
190 1 11.4265 10.9438 10.7626
191 1 9.43176 9.94731 10.9534
ITEM: TIMESTEP
6000
ITEM: NUMBER OF ATOMS
191
ITEM: BOX BOUNDS pp pp pp
-1.3551619152720565e-01 1.2135516191527097e+01
-1.3551619152720565e-01 1.2135516191527097e+01
-1.3551619152720565e-01 1.2135516191527097e+01
ITEM: ATOMS id type x y z
4 1 1.27255 2.4541 1.77266
116 1 0.159013 1.55299 2.28389
5 1 2.58951 2.33637 2.01162
12 1 1.15926 0.62034 4.89657
118 1 0.280977 0.748207 3.68546
11 1 0.530557 0.785792 7.35786
32 1 1.28815 0.750183 8.57723
17 1 2.37424 2.05505 6.22892
31 1 2.7447 0.786431 8.8237
13 1 1.20849 1.27764 6.18041
28 1 0.508093 1.0285 9.66762
29 1 0.403955 2.35555 10.0734
30 1 1.42529 2.64628 10.9851
38 1 2.73121 1.87793 10.8642
7 1 0.399227 4.70036 1.62075
6 1 0.927519 3.60521 0.957036