ITEM: TIMESTEP
1000
ITEM: NUMBER OF ATOMS
191
ITEM: BOX BOUNDS pp pp pp
0.0000000000000000e+00 1.2000000000000000e+01
0.0000000000000000e+00 1.2000000000000000e+01
0.0000000000000000e+00 1.2000000000000000e+01
ITEM: ATOMS id type x y z
12 1 1.20509 0.848646 4.8824
1 1 2.45416 2.21262 3.44646
118 1 0.0568909 0.931156 4.21542
31 1 2.7963 1.20012 8.59879
32 1 1.33362 1.11411 8.47168
11 1 0.524598 1.20419 7.34151
17 1 2.71238 2.40746 6.16634
13 1 1.38231 1.67759 6.10224
28 1 0.600435 1.06936 9.68613
29 1 0.380463 2.49177 10.0643
30 1 1.54051 2.88833 10.6729
38 1 2.76966 2.1392 10.5977
4 1 2.18611 3.42645 1.49308
6 1 1.37529 4.1638 0.681185
7 1 0.316389 4.7799 1.23673
5 1 2.72351 3.38718 2.80547
53 1 0.358511 5.83537 4.1516
14 1 2.48962 3.77126 6.47623
22 1 1.04066 4.12647 6.92577
63 1 0.861504 4.89394 8.19573
34 1 1.60511 4.1806 11.3394
64 1 1.84804 5.17285 10.4568
66 1 1.97643 4.87993 9.13738
39 1 0.181589 8.50532 0.712513
43 1 2.65505 8.15867 0.868042
42 1 1.41328 7.99508 1.5577
45 1 0.410238 6.0196 1.6437
40 1 0.607622 6.50916 2.98891
41 1 1.37971 7.70322 2.91852
54 1 2.3679 6.52629 5.21292
50 1 2.14686 8.46843 3.69532
52 1 1.04645 6.21113 5.25484
60 1 2.43505 7.90596 4.88676
59 1 0.319578 6.54721 6.41356
67 1 1.82448 7.31926 8.10585
71 1 0.824954 6.39916 7.65354
108 1 1.50378 8.72625 8.5489
75 1 1.63839 8.73584 10.9
76 1 2.39605 7.75422 11.4558
77 1 2.36185 6.3648 11.1126
89 1 1.68557 10.4378 0.778156
84 1 1.26087 10.293 2.26055
96 1 1.39937 10.5244 5.80047
21 1 1.92503 11.6793 5.0829
83 1 1.97272 9.86486 3.45811
109 1 0.460584 9.13924 7.92927
107 1 1.96788 9.23301 9.68906
80 1 0.964113 9.47731 11.8748
3 1 3.46182 1.23958 3.5408
16 1 4.12741 0.164967 5.50129
2 1 4.94593 1.47411 3.18049
9 1 5.79569 2.82726 7.153
24 1 5.70492 2.43076 8.65892
26 1 5.83625 0.933983 8.58776
10 1 5.33926 2.06308 6.16372
18 1 3.95423 1.52412 6.0336
25 1 3.47206 2.22466 9.36298
36 1 3.1563 1.05003 11.3995
48 1 4.33373 4.65548 0.709691
44 1 5.99016 5.22315 2.44868
46 1 4.83482 4.57961 2.03733
8 1 3.91788 4.06314 2.96916
58 1 5.89245 4.77236 5.62939
56 1 5.05263 5.94244 5.47293
51 1 3.61934 5.79543 5.77172
70 1 3.40603 5.25056 8.37877
57 1 3.29911 4.88631 6.83742
78 1 5.12797 4.29346 11.5245
68 1 4.40579 4.42649 9.42396
69 1 5.059 5.21573 10.3426
27 1 4.47806 3.0505 9.22505
47 1 5.19546 7.94796 2.43487
82 1 4.90455 8.78538 1.39948
92 1 5.0144 8.61295 3.70179
55 1 5.95341 7.18716 5.53858
73 1 4.19161 7.74413 8.55678
62 1 5.53684 7.49362 7.95057
65 1 3.19209 6.8109 8.4114
61 1 5.63671 8.06901 6.60218
72 1 5.55993 6.5066 10.3029
81 1 5.54413 7.76087 11.0694
88 1 3.49987 11.0428 2.1632
85 1 3.16455 10.4098 1.00517
91 1 5.91697 9.71594 1.04399
90 1 3.67653 9.11918 1.0001
94 1 5.51007 11.7138 5.47563
97 1 5.54044 10.2859 5.25334
87 1 3.11333 10.7168 3.43176
20 1 3.18504 11.8843 4.2963
95 1 5.89847 9.73487 4.04418
93 1 5.64775 9.60237 6.45837
100 1 5.39615 10.4731 7.59658
101 1 5.51693 9.71445 8.84227
106 1 4.93343 11.8978 7.96221
33 1 3.59975 11.9983 8.55921
98 1 3.50555 11.1841 9.68144
103 1 3.22428 11.7935 10.9441
99 1 3.27887 9.79207 9.59418
102 1 4.32834 9.07969 9.01661
114 1 8.60925 1.0636 0.341457
15 1 6.28686 1.03729 5.36838
19 1 6.14573 1.31933 3.9212
121 1 7.76238 0.614062 5.91285
128 1 8.88866 2.97665 3.70562
129 1 8.35478 0.18746 9.37563
130 1 8.26103 2.13424 11.4211
137 1 7.02759 0.504277 9.32774
134 1 6.96563 2.54662 10.8961
35 1 6.87822 2.8466 9.43909
147 1 8.12484 3.78741 2.81579
139 1 8.95702 4.71955 2.11283
141 1 6.86754 4.534 3.29409
150 1 8.14886 4.52859 5.47536
156 1 6.87198 4.6036 4.71775
151 1 8.27125 5.07366 6.80782
166 1 7.22697 4.60737 7.64401
23 1 6.11789 4.13615 6.99852
167 1 7.57641 4.01855 8.90824
165 1 8.33637 4.89564 9.7276
37 1 6.09022 3.28999 11.648
49 1 6.32647 6.66491 2.15676
140 1 7.99375 7.68454 0.383597
142 1 8.58072 7.38481 2.5869
145 1 6.96274 6.67636 0.681379
171 1 8.11027 8.45739 1.63405
144 1 7.31434 7.04926 3.2988
148 1 7.18411 7.1601 4.73754
154 1 8.35935 7.1502 5.53352
153 1 8.1698 6.55922 6.73473
162 1 8.58165 7.49694 7.74916
184 1 8.14193 8.93666 7.51019
188 1 7.99517 8.26872 11.0671
74 1 6.48352 6.90777 9.14608
160 1 7.81743 7.2395 9.89896
169 1 7.09657 9.53003 1.87342
174 1 7.97704 10.9841 3.56656
170 1 6.93637 10.1165 3.21665
177 1 8.34338 9.55504 6.12299
178 1 8.10362 11.1346 6.34415
180 1 7.89147 9.70405 8.60484
181 1 8.60636 10.9521 8.71045
185 1 8.91145 11.4014 7.40967
104 1 6.73251 9.58153 9.41521
110 1 6.49943 9.08283 10.8292
86 1 6.07477 10.1283 11.7812
115 1 10.3233 1.23323 2.44296
116 1 11.6482 0.993539 2.82226
112 1 9.70433 1.22206 1.2498
111 1 9.4857 1.66562 3.53701
126 1 10.9251 0.207048 4.75638
120 1 9.76984 1.11383 4.82804
123 1 9.07273 1.35593 5.95414
127 1 9.85358 0.871564 7.35898
189 1 11.3665 0.497339 7.24559
131 1 9.26943 1.27343 8.8753
135 1 9.92736 2.45712 9.72437
136 1 9.31994 2.91918 10.9834
105 1 11.8296 0.0101488 10.1355
119 1 10.0568 4.12402 1.1601
117 1 11.2913 4.10232 1.87838
157 1 11.3328 4.9189 4.17809
124 1 9.18021 3.70881 5.01453
146 1 11.3855 3.97031 3.30822
138 1 10.2186 5.74187 3.89366
161 1 10.2777 4.94223 8.31128
155 1 9.72347 4.77316 7.05922
133 1 11.4486 4.36918 8.8939
122 1 11.7791 3.7662 6.22739
125 1 10.4313 4.01175 6.05778
163 1 9.44619 5.61201 9.18789
113 1 9.86272 3.82653 11.855
132 1 11.2015 3.12199 9.46298
143 1 9.41135 6.11047 2.82495
168 1 11.139 7.60473 0.563201
149 1 9.69535 7.6531 5.41856
152 1 10.827 7.13612 6.19421
159 1 9.168 7.09184 8.9772
158 1 11.2905 7.02504 10.2119
164 1 10.4181 7.84684 9.49228
79 1 11.2299 6.74242 11.5198
172 1 10.0074 10.0659 4.56232
173 1 11.0291 10.7553 5.07982
175 1 9.42791 9.05859 5.30838
179 1 9.28849 10.6904 3.58403
182 1 11.2861 9.8532 8.11419
186 1 11.4828 11.032 7.29613
176 1 11.9937 10.5963 6.03074
187 1 10.2157 9.88624 10.5578
190 1 10.9942 11.1135 10.7664
183 1 10.5117 9.3033 9.2034
191 1 9.03 9.33326 11.045
ITEM: TIMESTEP
2000
ITEM: NUMBER OF ATOMS
191
ITEM: BOX BOUNDS pp pp pp
-1.1249583502261196e-01 1.2112495835022647e+01
-1.1249583502261196e-01 1.2112495835022647e+01
-1.1249583502261196e-01 1.2112495835022647e+01
ITEM: ATOMS id type x y z
4 1 1.71622 2.70715 1.38524
12 1 1.25112 0.622789 4.81233
118 1 0.15534 0.413372 3.97397
13 1 1.28611 1.38701 6.0719
31 1 2.72443 0.965206 8.64477
32 1 1.29951 0.696178 8.56917
11 1 0.506098 0.830929 7.26318
17 1 2.56018 2.17243 6.18811
28 1 0.373303 0.901886 9.81265
38 1 2.73069 2.03528 10.7058
30 1 1.40135 2.70174 10.9599
29 1 0.321724 2.32042 10.1923
7 1 0.592868 4.7773 1.6658
6 1 1.02581 3.76634 0.751803
45 1 1.2254 5.71282 2.20888
14 1 2.25752 3.57789 6.66821
22 1 0.874463 3.93473 6.97504
63 1 0.601086 4.72184 8.41294
34 1 1.49834 3.96753 11.6578
64 1 1.95445 5.12226 10.7509
66 1 1.93032 4.80994 9.35777
39 1 0.121845 8.77919 1.05224
43 1 2.25005 8.03007 0.824256
42 1 1.15839 8.16499 1.7183
54 1 2.38641 6.47752 5.55495
50 1 2.15763 8.69807 3.79107
52 1 0.987983 6.25277 5.60033
53 1 0.374222 6.27904 4.40307
60 1 2.68555 7.84817 4.95089
40 1 1.08253 6.55326 3.22779
41 1 1.29495 7.86552 3.02074
108 1 1.40821 8.49347 8.66664
67 1 1.8209 7.12505 8.30694
71 1 0.680575 6.28244 8.06182
59 1 0.165165 6.63076 6.83174
77 1 2.16377 6.4336 11.3704
76 1 1.88026 7.72287 11.6328
89 1 1.59138 10.7477 0.852561
84 1 1.28425 10.6843 2.21714
80 1 0.696404 9.71281 -0.0188388
83 1 2.08789 10.1342 3.24965
21 1 1.89018 11.5899 5.20613
96 1 1.19622 10.5237 5.59419
176 1 -0.261212 10.5332 5.81726
109 1 0.271177 9.10252 8.16155
107 1 1.8512 9.23166 9.81808
75 1 1.27838 8.8914 11.1323
3 1 4.66203 0.505653 1.98632
1 1 3.75073 1.4435 1.77096
2 1 5.99467 0.801482 2.4009
5 1 3.03407 2.48358 2.17118
16 1 4.12437 0.0647953 5.56637
18 1 3.86649 1.48017 5.84613
26 1 5.97634 0.788641 8.83237
24 1 5.68692 2.33103 8.64533
10 1 5.0818 2.09162 6.22018
9 1 5.75326 2.85553 7.25699
25 1 3.21521 2.1512 9.37888
36 1 3.00161 0.914081 11.5643
48 1 4.1819 4.78681 0.616664
44 1 5.55866 5.28533 2.72757
46 1 4.58212 4.5087 1.96963
8 1 3.84146 3.5501 2.64129
56 1 5.06802 5.65676 5.65055
70 1 3.13126 5.20128 8.60932
57 1 3.16836 4.66075 6.99798
51 1 3.45396 5.62023 5.90349
78 1 4.93149 4.5356 11.651
68 1 4.25418 4.34857 9.32885
69 1 4.75943 5.20187 10.368
37 1 5.68701 3.41389 11.523
27 1 4.31887 2.9519 9.14594
47 1 4.99885 7.82821 2.30689
82 1 4.7234 8.73919 1.36634
55 1 5.80125 7.06336 5.51995
92 1 5.07755 8.43838 3.66688
73 1 4.13955 7.65732 8.59715
62 1 5.52846 7.4642 8.01176
61 1 5.67261 8.06618 6.70097
65 1 3.14315 6.70656 8.53519
102 1 4.28098 9.03376 9.20905
72 1 5.3195 6.47882 10.1524
81 1 5.5247 7.68259 10.9321
88 1 3.82075 11.2791 2.1345
85 1 3.17865 10.6521 0.637276
91 1 5.7737 9.61144 0.985037
90 1 3.31146 9.02649 0.929366
20 1 3.17281 11.5892 4.56508
94 1 5.52126 11.82 5.35088
97 1 5.64262 10.2838 5.27914
87 1 3.35325 10.8349 3.33475
95 1 5.76513 9.64015 4.03288
93 1 5.38189 9.60129 6.44536
100 1 5.29521 10.7267 7.80329
101 1 5.39121 9.88783 8.90946
106 1 4.92036 12.1471 8.23223
33 1 3.62233 12.0374 8.98541
98 1 3.34076 11.0987 10.1092
103 1 3.27577 11.5584 11.4513
99 1 3.25297 9.63467 9.9536
86 1 5.94455 10.0103 11.8926
114 1 9.00664 2.16337 0.273909
15 1 6.7329 0.240032 4.8638
19 1 6.79034 0.70072 3.40821
123 1 8.95073 1.12301 5.31701
121 1 8.03244 0.0468521 5.55398
129 1 8.36721 0.311252 9.28107
130 1 8.12514 3.02204 11.7006
137 1 6.98652 0.48934 9.8044
134 1 6.85539 2.7708 11.1266
147 1 7.8079 4.71451 2.44461
139 1 9.01929 5.52367 2.18566
141 1 6.58159 4.61096 3.38526
150 1 8.13392 3.72996 4.83884
156 1 6.87698 4.39508 4.75383
58 1 5.93571 4.51457 5.81256
151 1 8.57974 5.27997 6.97915
166 1 7.56286 4.47753 7.75202
23 1 6.2818 4.15221 7.1756
167 1 7.61038 4.00705 9.08265
165 1 8.45289 4.72804 9.96541
136 1 8.77843 4.17481 11.2262
35 1 6.78564 2.90863 9.53982
171 1 7.8782 8.48665 1.40285
140 1 7.58428 7.6349 0.235211
142 1 8.19885 7.661 2.49787
145 1 6.56453 6.61526 0.651186
49 1 5.86942 6.61114 2.19094
144 1 7.02131 7.09839 3.30326
148 1 7.02526 6.91784 4.75204
154 1 8.26197 7.05106 5.39109
153 1 8.37546 6.60315 6.6579
162 1 8.50371 7.53581 7.67615
184 1 8.31286 8.9534 7.49173
159 1 8.95675 7.1388 9.11299
188 1 7.82602 8.20179 11.133
160 1 7.57374 7.22046 9.81429
74 1 6.34325 6.75591 9.11934
110 1 6.48938 8.95215 10.8589
169 1 6.98928 9.46167 1.72988
170 1 6.90486 9.94211 3.20631
174 1 8.01589 10.7513 3.41677
177 1 8.75197 9.61159 6.15014
178 1 8.60982 11.019 6.20975
180 1 7.83779 9.74055 8.68472
181 1 8.49044 11.0676 8.59093
104 1 6.65213 9.5495 9.50607
191 1 8.96888 9.39124 10.8305
115 1 10.7697 1.40981 2.16407
112 1 9.88044 1.33536 0.946956
116 1 12.1036 0.873389 2.67155
111 1 10.1574 2.11124 3.26967
126 1 11.1721 0.0571138 4.57793
120 1 10.1293 1.10757 4.56487
127 1 10.1112 0.352754 7.61097
189 1 11.4903 0.0796872 7.40917
131 1 9.58034 1.17347 8.64555
135 1 10.3356 2.14116 9.29357
132 1 11.4196 2.95105 9.49057
119 1 10.0308 4.93345 1.25746
117 1 11.277 4.63424 1.81602
113 1 9.5278 4.88911 -0.0913264
128 1 10.411 3.39211 3.84953
124 1 9.65589 3.69608 5.0595
146 1 11.1063 4.48003 3.29672
157 1 11.1875 5.78814 3.95016
161 1 10.3543 5.05811 8.59052
155 1 9.85775 4.70517 7.17932
125 1 10.5332 4.03899 6.16081
122 1 11.8869 3.82706 6.3085
133 1 11.4862 4.34683 9.05301
163 1 9.35104 5.59043 9.29997
143 1 9.20987 6.69313 2.79902
168 1 11.1472 8.06978 0.803807
149 1 9.46183 7.67026 4.85871
138 1 10.1067 6.78832 3.87164
152 1 11.3824 7.66169 6.71706
158 1 11.2232 7.42628 10.3809
164 1 10.3973 7.90303 9.33339
79 1 10.8945 7.53286 11.7396
172 1 10.1766 10.102 4.27158
173 1 11.1434 10.9537 4.7622
179 1 9.38922 10.7919 3.42907
175 1 9.57153 9.07702 5.07986
182 1 11.4074 9.88747 8.19035
186 1 11.5802 10.9043 7.2837
185 1 9.30654 11.4279 7.36761
187 1 10.0927 9.93544 10.2761
190 1 10.7692 11.2102 10.5165
105 1 11.7321 12.0742 10.235
183 1 10.5388 9.31565 9.15272
ITEM: TIMESTEP
3000
ITEM: NUMBER OF ATOMS
191
ITEM: BOX BOUNDS pp pp pp
-2.4871625977717413e-01 1.2248716259777177e+01
-2.4871625977717413e-01 1.2248716259777177e+01
-2.4871625977717413e-01 1.2248716259777177e+01
ITEM: ATOMS id type x y z
116 1 -0.301676 0.917853 2.23439
12 1 1.09887 0.427402 4.93321
118 1 0.116686 0.421339 3.71361
17 1 2.56529 2.0877 5.99305
32 1 1.25119 0.664991 8.57436
11 1 0.473048 0.653646 7.24099
13 1 1.23476 1.3029 5.93328
31 1 2.65389 0.896501 8.83884
28 1 0.225622 0.657556 9.63022
38 1 2.59524 1.82493 10.9402
30 1 1.30129 2.36995 11.096
29 1 0.0491323 2.08194 10.2517
7 1 0.245567 4.71908 1.29577
6 1 1.17446 3.86516 0.617679
45 1 0.936323 5.52921 2.21548
4 1 2.02643 3.22566 1.46209
14 1 2.11159 3.64445 6.17768
63 1 0.401677 5.11906 8.80053
22 1 0.78294 3.94466 6.15856
34 1 1.29193 3.7212 11.7392
64 1 1.44937 4.739 10.8213
66 1 1.44329 4.50414 9.45836
39 1 0.124152 8.57761 0.906405
42 1 1.32387 8.04603 1.61236
43 1 2.14105 7.34692 0.696345
54 1 2.51985 7.02228 5.47698
50 1 1.96454 8.87157 3.64592
52 1 0.847858 6.62714 5.63674
53 1 0.13299 6.40639 4.34037
40 1 0.977391 6.61533 3.22864
41 1 1.51781 7.83306 2.91341
59 1 0.122037 6.61096 6.80175
67 1 1.74943 7.18975 8.57139
71 1 0.62932 6.31379 8.07128
109 1 0.206723 9.12116 8.61356
77 1 1.50645 6.06189 11.2917
76 1 1.59368 7.25615 11.8667
75 1 1.40263 8.69472 11.5029
107 1 1.87313 8.94029 10.2509
108 1 1.33278 8.4217 9.09413
89 1 1.56556 10.6575 0.69377
84 1 1.25414 10.633 2.05181
85 1 2.85573 11.2578 0.434438
80 1 0.838519 9.51519 0.0752415
83 1 2.22447 10.0464 2.92653
21 1 1.83753 11.6772 4.94898
96 1 1.01405 10.6126 5.35001
105 1 -0.560553 12.0359 10.2007
3 1 4.40541 0.438382 1.9649
1 1 3.49036 1.55094 1.75913
2 1 5.78305 0.57162 2.35345
5 1 3.22513 2.85666 1.90514
16 1 4.14225 -0.12052 5.22448
18 1 3.86496 1.40474 5.84842
10 1 5.17671 2.07152 6.2824
24 1 5.6207 2.26697 8.77945
26 1 5.9219 0.804489 8.81599
25 1 3.12347 1.91394 9.64012
37 1 5.78979 2.93518 11.8376
36 1 3.24655 0.829457 11.8169
27 1 4.22373 2.66113 9.21997
48 1 5.55308 5.12087 0.0898846
8 1 4.19668 3.84693 1.79406
46 1 5.18983 4.73753 1.48414
44 1 5.72114 5.38648 2.72039
56 1 5.04602 5.85828 5.47958
58 1 5.95069 4.74208 5.72558
70 1 2.93366 4.9044 8.55099
57 1 3.05291 4.90441 6.85607
51 1 3.55056 5.94642 5.86283
9 1 5.74002 2.80406 7.27237
78 1 5.08484 4.10583 11.603
69 1 4.88515 4.86742 10.2775
68 1 4.15462 4.12963 9.22729
72 1 5.76684 6.02164 10.4425
90 1 3.51262 7.43042 0.827552
82 1 4.47384 8.07992 1.46399
47 1 4.76081 7.65492 2.77361
92 1 4.39403 8.50204 3.9931
60 1 3.04859 8.24067 4.53115
55 1 5.79206 7.22321 5.78689
49 1 5.78602 6.78334 2.97008
65 1 2.95232 6.67116 8.68259
62 1 5.31303 7.48675 8.37508
61 1 5.51271 8.15951 6.98254
73 1 3.99446 7.71824 8.93303
102 1 4.19023 9.10715 9.53919
88 1 3.77508 11.6358 1.89583
91 1 5.47845 9.07555 0.985016
87 1 3.35427 10.9802 3.1275
94 1 5.43984 11.6825 5.40433
97 1 5.53613 10.2626 5.52476
95 1 5.46915 9.60705 4.23936
20 1 3.1409 11.6875 4.48814
93 1 5.20548 9.6688 6.77862
100 1 5.10211 10.5214 7.81734
106 1 4.91568 12.1897 8.442
101 1 5.37887 9.873 9.29181
33 1 3.39175 12.0637 9.15489
98 1 3.07273 11.2365 10.3806
99 1 3.09362 9.86298 10.1991
103 1 3.04811 11.9819 11.6589
86 1 5.76884 9.50821 12.0948
114 1 9.10403 2.29648 0.147627
15 1 6.566 -0.193964 4.76496
19 1 6.24831 0.539485 3.5672
121 1 7.92001 -0.260896 5.37964
123 1 8.79776 0.750633 4.51131
129 1 8.49473 0.125961 9.17392
137 1 7.14914 0.612373 9.48372
134 1 7.00266 2.72639 11.1373
147 1 8.14043 4.48796 2.48119
141 1 6.9436 4.75127 3.22973
150 1 8.24169 3.84273 5.00065
156 1 6.91048 4.27431 4.52721
151 1 8.5658 5.40096 7.06717
166 1 7.50166 4.52054 7.63141
23 1 6.21292 4.19432 7.01999
167 1 7.57859 4.15963 9.09625
165 1 8.56844 4.77201 10.0618
136 1 8.86422 4.17055 11.3001
130 1 8.28425 2.93755 11.6437
35 1 6.85574 3.09074 9.63696
171 1 7.63301 8.34501 1.57944
140 1 8.01309 8.02439 0.251631
142 1 8.04076 7.4573 2.69955
144 1 6.97483 7.19391 3.55826
148 1 6.92604 7.32029 4.99394
154 1 8.32173 7.28606 5.39451
153 1 8.55512 6.83475 6.80881
162 1 8.75988 7.8921 7.68628
159 1 8.9713 7.3709 9.046
74 1 6.3761 6.85188 9.27627
160 1 7.58061 7.3881 9.48183
145 1 7.36416 6.93111 12.2049
81 1 6.53961 5.99328 11.7716
188 1 8.06803 9.2459 11.7376
169 1 6.56291 9.33539 1.88454
170 1 6.53423 10.0635 3.23583
174 1 7.87798 10.7112 3.21715
177 1 8.82718 9.81695 6.04853
178 1 8.66318 11.2736 5.93474
180 1 7.97093 10.1756 8.56794
181 1 8.43704 11.4263 8.40644
184 1 8.47705 9.20519 7.49366
104 1 6.81232 9.93602 9.73315
110 1 6.7921 9.72009 11.1832
115 1 11.0446 1.77454 1.85698
112 1 10.028 1.56954 0.895993
111 1 10.5724 2.22058 3.27248
126 1 11.21 0.150767 4.33102
120 1 10.1609 1.07156 4.23695
127 1 10.3473 0.167503 7.78837
131 1 9.80488 0.898304 8.88484
189 1 11.6527 -0.150159 7.3561
135 1 10.2633 2.1825 9.39125
119 1 10.166 4.98123 1.11892
117 1 11.429 4.60606 1.65442
139 1 9.17289 5.28434 2.14788
128 1 10.3348 3.50434 3.79357
124 1 9.63503 3.84514 4.95039
146 1 11.1676 4.64291 3.22494
161 1 10.5449 5.08674 8.44178
155 1 9.84834 4.81373 7.10772
133 1 11.6537 4.37459 9.0917
125 1 10.4092 3.9312 6.12368
122 1 11.9148 3.86263 6.31416
163 1 9.39382 5.60496 9.33477
132 1 11.5249 2.90796 9.5381
113 1 9.54893 4.83219 12.2578
168 1 11.394 7.97607 0.668182
143 1 9.11711 6.63608 2.70259
79 1 10.6246 7.59286 -0.320366
149 1 9.41527 7.75299 4.60676
138 1 10.169 6.89359 3.68358
157 1 11.2041 5.98599 3.99835
152 1 11.3014 6.89807 6.55287
158 1 10.528 7.50409 10.8806
164 1 10.1681 8.11402 9.73072
172 1 10.1431 10.2127 4.12971
173 1 11.0578 11.1844 4.7165
176 1 12.0586 10.718 5.64186
175 1 9.59534 9.0871 5.13117
179 1 9.28051 10.6086 3.11037
182 1 11.5137 9.86732 8.32485
186 1 11.7995 10.9025 7.10301
185 1 9.2976 11.7969 7.2614
187 1 10.3192 10.1866 10.5647
190 1 11.1181 11.234 10.8652
191 1 9.28503 9.96194 11.4609
183 1 10.5044 9.43678 9.3351
ITEM: TIMESTEP
4000
ITEM: NUMBER OF ATOMS
191
ITEM: BOX BOUNDS pp pp pp
-2.2735009247207891e-01 1.2227350092472083e+01
-2.2735009247207891e-01 1.2227350092472083e+01
-2.2735009247207891e-01 1.2227350092472083e+01
ITEM: ATOMS id type x y z
116 1 -0.144465 1.19054 2.55159
4 1 1.74761 2.9122 1.03117
12 1 0.785442 0.408094 4.89874
118 1 -0.187134 0.62355 3.89279
17 1 2.42641 1.95672 6.20177
32 1 1.28429 0.474288 8.51113
11 1 0.373633 0.671715 7.27288
13 1 1.11949 1.1719 6.11389
31 1 2.77109 0.707753 8.75439
28 1 0.234511 0.767392 9.88132
38 1 2.51469 2.03158 11.0107
30 1 1.33339 2.72551 10.8806
29 1 0.221523 2.19794 10.1245
7 1 0.148054 4.69596 1.20142
6 1 0.971804 3.90765 0.299277
45 1 1.02531 5.60992 1.95178
14 1 2.12122 3.51957 6.48949
63 1 0.616974 4.86284 8.52475
22 1 0.793176 3.80047 6.33933
34 1 1.03942 3.96633 11.4071
64 1 1.58419 5.08029 10.5664
66 1 1.85079 4.70472 9.24055
39 1 0.193806 9.0398 0.909028
42 1 1.26307 8.32272 1.44795
43 1 1.99732 7.56896 0.516734
41 1 1.42083 7.87706 2.76181
54 1 2.72379 6.88556 5.20625
50 1 2.07843 8.64842 3.69947
52 1 1.02418 6.70191 5.39831
53 1 0.255632 6.37983 4.1397
40 1 0.951083 6.63985 3.00631
59 1 0.295143 6.76519 6.58534
67 1 1.77863 7.2868 8.46424
71 1 0.806451 6.09927 7.68193
108 1 1.19031 8.60492 8.76858
109 1 0.201239 8.88897 7.83959
77 1 1.14523 6.39829 10.8045
76 1 1.58116 7.57305 11.6482
75 1 1.08676 9.01179 11.2034
89 1 1.66182 10.739 0.544041
84 1 1.33811 10.4845 2.05182
80 1 0.672712 9.83541 -0.22319
96 1 0.857708 10.6007 5.22801
21 1 1.57998 11.7694 4.91421
83 1 2.22995 10.1294 3.05971
107 1 1.65875 9.339 9.91773
3 1 4.40244 0.439412 2.02754
1 1 3.70384 1.57976 1.53164
2 1 5.55612 0.567903 2.74058
5 1 3.03887 2.77885 1.61381
16 1 4.03494 0.103048 5.25339
18 1 3.79217 1.37899 5.86629
10 1 4.95417 2.14494 6.30317
24 1 5.64821 2.64095 8.75254
26 1 5.99338 0.298246 8.87385
9 1 5.82452 2.67736 7.26492
25 1 3.24772 2.016 9.50423
36 1 3.07566 0.837323 11.6044
48 1 5.40644 5.23724 0.118204
8 1 3.8717 4.06724 1.72623
46 1 4.97727 4.83936 1.5959
44 1 5.73592 5.2954 2.6396
51 1 3.78618 5.67155 6.03716
56 1 5.24046 5.73634 5.97331
70 1 3.13413 5.19312 8.45831
57 1 2.93458 4.80222 6.90083
78 1 4.97461 4.23878 11.6781
69 1 4.98439 5.03823 10.1792
68 1 4.18921 4.43043 9.22928
37 1 5.71182 3.02396 11.6705
27 1 4.29362 3.04011 9.12334
90 1 3.33225 7.57573 0.779422
82 1 4.39932 8.03461 1.4848
47 1 4.70903 7.60565 2.86246
91 1 5.35474 9.05927 0.939275
92 1 4.32881 8.31088 4.06629
60 1 3.03994 8.14294 4.62005
49 1 5.71189 6.63511 2.98804
55 1 5.9894 6.94863 5.9516
65 1 2.98942 6.78045 8.86702
62 1 5.55017 7.32686 8.26698
61 1 5.44928 8.11178 6.82286
73 1 4.17557 7.70625 8.94037
102 1 4.18392 9.06351 9.42632
72 1 5.87333 6.13573 10.3978
88 1 3.59208 11.771 1.89403
85 1 2.94063 11.3111 0.533791
87 1 3.32073 11.1233 3.27034
94 1 5.33407 11.778 5.45168
97 1 5.24091 10.2873 5.49022
95 1 5.3336 9.51348 4.25106
20 1 3.00256 11.8574 4.38308
93 1 5.43678 9.62888 6.71071
100 1 5.22378 10.5413 8.00777
106 1 4.85907 11.9045 8.35534
33 1 3.52869 11.9859 9.01205
98 1 3.0272 11.335 10.1793
86 1 5.6789 9.47665 11.9765
99 1 2.99082 9.86571 9.8832
103 1 3.18416 11.8579 11.6503
101 1 5.33176 9.81338 9.15318
114 1 9.17383 1.90872 0.111231
123 1 8.80433 0.939505 5.06334
19 1 6.43225 0.423566 3.66389
15 1 6.58901 -0.153373 4.97499
121 1 7.93236 -0.283051 5.40959
129 1 8.55198 0.111756 9.39687
137 1 7.19989 0.347139 9.63356
134 1 6.95697 2.73405 10.9822
130 1 8.32192 2.59969 11.514
147 1 7.99254 4.60049 2.64148
139 1 9.07638 5.37677 2.02296
141 1 6.79328 4.57731 3.29629
150 1 8.3154 3.9497 5.07677
156 1 6.96153 4.19605 4.67929
58 1 6.11856 4.59229 5.80351
151 1 8.54467 5.31969 7.25176
166 1 7.45665 4.49949 7.8698
23 1 6.50434 3.91917 7.01503
165 1 8.73383 4.56148 10.1118
136 1 9.11569 3.92364 11.3873
167 1 7.83856 4.07069 9.16784
35 1 6.87168 2.93274 9.48393
171 1 7.67041 8.50223 1.59707
140 1 7.85331 8.24481 0.168623
142 1 7.99076 7.56431 2.6231
143 1 9.23373 6.60971 2.7731
144 1 6.87841 7.17702 3.61452
148 1 7.0304 7.16567 4.99756
154 1 8.40387 7.04731 5.58084
153 1 8.50939 6.62875 6.79188
162 1 8.83966 7.72564 7.76575
184 1 8.44203 9.05859 7.57867
74 1 6.51667 6.88044 9.34903
160 1 7.83205 7.27086 9.81943
81 1 6.22208 6.22619 11.7187
145 1 7.05366 7.14504 12.2768
169 1 6.46053 9.12628 1.88796
170 1 6.4035 9.76827 3.07322
174 1 7.63406 10.2407 3.53984
179 1 8.83221 10.6373 3.63624
177 1 8.77136 9.62385 6.25175
178 1 8.63139 11.0159 6.0903
180 1 8.05286 9.92074 8.57953
181 1 8.55962 11.4048 8.61909
104 1 6.76982 9.72144 9.76286
110 1 6.91342 9.68767 11.1951
191 1 9.33528 9.54947 11.1262
188 1 8.14276 9.22983 11.7167
115 1 11.0531 1.81031 2.10118
112 1 10.2441 1.82614 0.935094
111 1 10.3883 2.13891 3.47353
120 1 10.0864 1.11164 4.36455
126 1 10.9799 0.0263822 4.30263
127 1 10.189 0.178903 7.67645
131 1 9.6146 0.963212 8.84082
189 1 11.5128 -0.0250992 7.36314
135 1 10.46 2.07555 9.28083
105 1 11.8999 -0.324992 10.3047
132 1 11.6128 2.8679 9.42241
119 1 10.128 4.9681 1.26328
117 1 11.361 4.69043 1.83452
113 1 9.83577 4.68019 -0.072213
128 1 10.432 3.65047 3.98843
124 1 9.74119 3.91044 5.13253
146 1 11.2247 4.64905 3.43548
161 1 10.5564 4.9703 8.63313
155 1 9.89513 4.78917 7.34364
125 1 10.4882 4.08467 6.34564
133 1 11.8117 4.25765 8.91792
122 1 11.8468 3.72889 6.48673
163 1 9.60369 5.6098 9.46002
168 1 11.4709 8.25373 0.790342
79 1 10.8159 7.71525 -0.183364
149 1 9.58506 7.62951 5.01086
138 1 10.1758 6.72846 3.8277
157 1 11.3862 5.93821 3.92131
175 1 9.63407 9.00515 5.24628
152 1 12.1168 7.91717 6.95422
158 1 10.8009 7.67208 10.9748
164 1 10.2999 7.98295 9.70186
159 1 9.24738 7.12258 9.186
172 1 10.0451 10.175 4.36146
173 1 11.0313 11.1396 4.75527
176 1 11.9554 10.6981 5.71566
182 1 11.5272 9.86287 8.16054
186 1 11.7421 11.0045 7.16282
185 1 9.21063 11.6399 7.30359
187 1 10.1219 10.1559 10.1681
190 1 10.8048 11.3221 10.3256
183 1 10.7447 9.31923 9.2725
ITEM: TIMESTEP
5000
ITEM: NUMBER OF ATOMS
191
ITEM: BOX BOUNDS pp pp pp
-1.3638421393837541e-01 1.2136384213938355e+01
-1.3638421393837541e-01 1.2136384213938355e+01
-1.3638421393837541e-01 1.2136384213938355e+01
ITEM: ATOMS id type x y z
116 1 -0.20175 0.877687 2.38314
12 1 1.21937 0.636575 4.91793
118 1 0.188243 0.645024 3.82646
31 1 2.70579 0.964616 8.70553
32 1 1.33157 0.667883 8.40303
11 1 0.5897 0.642985 7.13445
17 1 2.65281 2.15809 6.2616
13 1 1.33665 1.29714 6.0735
28 1 0.438016 0.848529 9.59499
38 1 2.55849 2.19174 10.6706
30 1 1.24275 2.72736 10.7434
29 1 0.280157 2.24081 9.9065
36 1 3.05899 1.05276 11.3978
7 1 0.279319 4.69594 1.40673
6 1 1.03252 3.81445 0.626434
45 1 1.11994 5.53102 2.08431
4 1 1.79324 2.91374 1.48002
14 1 2.31741 3.57408 6.4223
63 1 0.776146 4.94861 8.48827
22 1 0.936027 3.74405 6.00336
34 1 1.14098 3.88213 11.4682
64 1 1.51389 5.04978 10.6148
66 1 1.9004 4.73066 9.32796
39 1 0.168333 8.83618 1.1483
42 1 1.19724 8.10444 1.61815
43 1 2.03488 7.4869 0.627699
54 1 2.53649 6.86431 5.40486
50 1 2.27121 8.56833 3.64928
52 1 1.10502 6.58729 5.43092
53 1 0.331281 6.18499 4.1652
40 1 1.27709 6.38184 3.12428
41 1 1.47114 7.7118 2.86519
59 1 0.51818 6.68698 6.61382
67 1 1.75215 7.00949 8.42868
71 1 0.92475 6.11344 7.7597
108 1 1.24471 8.37525 8.66493
109 1 0.0868162 8.63139 7.9247
77 1 1.11936 6.41101 10.9986
76 1 1.58948 7.55799 11.6534
75 1 1.18326 8.74157 11.1926
89 1 1.56503 10.7039 0.66345
84 1 1.45606 10.3515 2.07359
85 1 2.85874 11.3598 0.474748
80 1 0.782591 9.69162 -0.152522
96 1 1.09622 10.5158 5.39927
21 1 1.90217 11.5773 4.96659
83 1 2.43597 9.80464 3.1074
107 1 1.60404 9.09332 9.86502
3 1 4.44468 0.564562 1.95176
1 1 3.7919 1.73207 1.90455
2 1 5.83105 0.382644 2.40633
16 1 4.15 0.143378 5.30952
18 1 3.94634 1.45912 6.00707
10 1 5.14566 2.0549 6.48699
24 1 5.63421 2.86915 8.78648
26 1 5.73321 0.416284 8.61566
25 1 3.14521 2.14689 9.34809
27 1 4.28656 3.03281 9.25444
48 1 5.71257 5.23291 0.359007
8 1 3.87195 4.14841 1.70946
46 1 5.00765 4.97024 1.6272
44 1 5.65461 5.36785 2.78214
5 1 3.23956 2.95461 1.80136
56 1 4.93884 5.92643 5.78181
51 1 3.50089 5.74212 6.04453
70 1 3.14723 5.00025 8.64459
57 1 3.08536 4.60511 6.90254
9 1 5.77952 2.94943 7.40085
78 1 5.2802 4.18012 11.7638
69 1 4.85578 4.85175 10.505
68 1 4.13094 4.43415 9.45618
90 1 3.3909 7.62312 0.784512
82 1 4.40845 8.18482 1.54586
47 1 4.66876 7.70347 2.80334
92 1 4.49205 8.43906 4.12942
55 1 5.71821 7.0866 5.83436
60 1 3.1751 8.07497 4.68528
49 1 5.65403 6.77695 2.90848
65 1 3.09217 6.66907 8.59377
62 1 5.41007 7.44044 8.32041
61 1 5.62685 7.93907 6.92675
73 1 4.07597 7.7179 8.83382
102 1 4.06318 9.00652 9.47752
72 1 5.76949 6.05679 10.5519
88 1 3.62999 11.5863 1.7923
91 1 5.51429 9.03967 1.03978
87 1 3.35277 11.0323 3.11455
94 1 5.4005 11.6022 5.40531
97 1 5.46177 10.0884 5.56279
95 1 5.50651 9.42338 4.35357
20 1 3.21821 11.6661 4.4678
93 1 5.46369 9.4694 6.86306
100 1 5.25549 10.3592 8.0551
106 1 4.7503 11.7174 8.37904
33 1 3.38089 12.0774 8.92579
98 1 3.11467 11.2513 10.1356
101 1 5.36055 9.63537 9.3781
99 1 2.86843 9.84486 9.78411
86 1 5.79139 9.44455 11.9207
103 1 3.0117 11.8922 11.4263
123 1 8.77795 0.566512 4.64645
19 1 6.24657 0.592819 3.64033
15 1 6.56501 -0.0237175 4.88588
137 1 6.89647 0.50092 9.24202
129 1 8.21767 0.340884 9.21025
134 1 7.10635 2.66271 10.8498
130 1 8.39855 2.79019 11.4679
147 1 7.78562 4.49605 2.31386
139 1 8.88281 5.31019 1.97485
141 1 6.77499 4.60209 3.23238
150 1 8.42457 3.6097 4.90067
156 1 7.0631 4.11122 4.55424
58 1 6.20959 4.66658 5.63261
151 1 8.57308 5.37769 7.12039
166 1 7.61611 4.50856 7.60482
23 1 6.509 4.10075 6.93746
167 1 7.6973 4.08188 8.97612
165 1 8.65885 4.66209 9.83327
136 1 8.93983 4.24723 11.1081
35 1 6.91586 3.1165 9.45492
37 1 5.93472 2.99604 11.6629
171 1 7.74067 8.49525 1.8457
140 1 8.023 8.28702 0.435996
142 1 8.00372 7.40121 2.76414
145 1 7.38139 7.15939 -0.0795527
143 1 9.12594 6.51546 2.84047
144 1 6.88708 7.23579 3.64822
148 1 7.02112 7.28241 5.02205
154 1 8.37675 7.13144 5.44497
153 1 8.54818 6.75322 6.73902
162 1 8.62859 7.72613 7.82257
74 1 6.22695 6.69819 9.26001
160 1 7.64501 7.07351 9.64722
81 1 6.29562 6.29194 12.0073
169 1 6.49132 9.26626 2.0633
170 1 6.36949 9.81192 3.34849
174 1 7.70198 10.5733 3.72958
179 1 9.02966 10.6836 3.66315
121 1 7.82425 12.0749 5.41952
177 1 8.59592 9.81626 6.41293
178 1 8.4845 11.1684 6.34016
180 1 7.85791 9.97499 8.82265
181 1 8.46511 11.3812 8.69345
184 1 8.28515 9.0379 7.65837
104 1 6.76023 9.83592 9.75296
110 1 6.90573 9.55222 11.0954
188 1 8.14635 9.30811 11.6712
115 1 10.8619 1.75631 2.10619
112 1 10.1896 1.86767 0.869491
114 1 9.29524 1.98929 -0.0831659
111 1 10.389 2.13952 3.41989
120 1 10.0253 0.968301 4.17634
126 1 11.1421 0.0746418 4.33066
127 1 10.1586 0.356118 7.70243
189 1 11.5173 0.0196402 7.36276
131 1 9.54037 1.21285 8.73096
135 1 10.1998 2.44861 9.03349
105 1 11.725 0.0954647 10.0437
119 1 10.0197 4.95392 1.14534
117 1 11.2161 4.66663 1.83505
113 1 9.69817 4.98752 -0.179929
128 1 10.4829 3.44763 3.82936
124 1 9.83012 3.52705 4.99283
146 1 11.0239 4.65538 3.21665
157 1 11.1658 5.78453 3.94795
122 1 11.9138 3.91143 6.20135
161 1 10.4627 5.01293 8.40461
155 1 9.89354 4.82858 7.16989
133 1 11.6545 4.38259 8.93388
125 1 10.4612 4.04111 6.1373
163 1 9.53296 5.61197 9.29125
132 1 11.5896 2.89892 9.18591
168 1 11.1425 8.33107 0.994658
79 1 10.6075 7.53858 0.106725
149 1 9.51663 7.73931 4.91058
138 1 10.0568 6.7763 3.88994
152 1 11.9393 7.79963 6.81445
158 1 10.5911 7.42782 11.0595
164 1 10.0586 7.98211 9.72903
159 1 8.94414 7.08039 9.12902
172 1 10.0621 10.2536 4.51464
173 1 11.1237 10.9883 4.84856
175 1 9.47057 9.19811 5.34045
176 1 12.0079 10.5928 5.79249
182 1 11.4979 9.6889 8.25711
186 1 11.6034 10.7189 7.24377
185 1 9.18928 11.675 7.48038
187 1 10.2056 10.3383 10.2848
190 1 10.965 11.4316 10.5171
191 1 9.36804 10.0714 11.413
183 1 10.5429 9.3397 9.38729
ITEM: TIMESTEP
6000
ITEM: NUMBER OF ATOMS
191
ITEM: BOX BOUNDS pp pp pp
-1.3090165008937563e-01 1.2130901650089351e+01
-1.3090165008937563e-01 1.2130901650089351e+01
-1.3090165008937563e-01 1.2130901650089351e+01
ITEM: ATOMS id type x y z
4 1 1.95459 2.59729 1.39897
116 1 -0.148466 1.35003 2.73288
12 1 1.10132 0.556173 4.90725
118 1 0.0506008 0.694512 3.96561
31 1 2.74548 0.731817 8.71243
32 1 1.37595 0.784276 8.60189
11 1 0.628022 0.621374 7.40852
17 1 2.44627 2.08472 6.20235
13 1 1.17359 1.12989 6.2222
28 1 0.463208 1.05912 9.6725
38 1 2.73426 2.08372 10.6451
30 1 1.46761 2.81989 10.7824
29 1 0.286165 2.39262 10.0188
7 1 0.359198 4.53863 1.48879
6 1 1.21009 3.58673 0.74235
45 1 1.16889 5.37409 2.16957