LAMMPS data file via write_data, version 8 Apr 2021, timestep = 6000

191 atoms
1 atom types

-0.09035631722572841 12.090356317225664 xlo xhi
-0.09035631722572841 12.090356317225664 ylo yhi
-0.09035631722572841 12.090356317225664 zlo zhi

Masses

1 12.0107

Atoms # atomic

4 1 1.1407942817909094 2.542963259220689 1.741915500225598 0 0 0
116 1 0.13305111087678081 1.6829998568384303 2.4544759547265995 1 0 0
5 1 2.6298296296933423 2.3907033896542216 1.7504467591301114 0 0 0
12 1 1.1776787387405454 0.8392328632365367 4.912155427667301 0 0 0
118 1 0.16958149437722528 0.9060317532318928 3.911798398272171 1 0 0
11 1 0.5429202984119323 0.8361279909774137 7.375234824212535 0 0 0
32 1 1.3931907576701903 0.5749094301780573 8.522645696940547 0 0 0
31 1 2.8227354132482207 0.7228360009550435 8.889655754730983 0 0 0
17 1 2.4025996862612238 2.1653860992822302 6.503737184508962 0 0 0
13 1 1.2137599510318229 1.4656220660262502 6.233458196468156 0 0 0
28 1 0.44604187156705405 0.6805894071625875 9.73228281272157 0 0 0
38 1 2.562295576264625 1.6577318255463989 10.92028462287085 0 0 0
30 1 1.4409754839312037 2.497650231423752 11.019119353213235 0 0 0
29 1 0.3007049041823363 2.0931129570645615 10.240004598795375 0 0 0
7 1 0.14213795876662816 4.731522558850282 1.4130844756675807 0 0 0
6 1 0.6973980206115951 3.6284629605745904 0.7193287812529865 0 0 0
45 1 1.0592886436509397 5.512639519031539 2.0826735139057897 0 0 0
14 1 2.215602109800523 3.5954211156710922 6.582282344421373 0 0 0
63 1 0.6685266880749554 4.84309039877654 8.880465119800023 0 0 0
22 1 0.8818075906567193 3.841658006117761 6.1008079147303835 0 0 0
34 1 1.3613792389054276 3.7363788660499506 11.675270040825342 0 0 0
64 1 1.8199009544069675 4.807159146781353 10.904104412648284 0 0 0
66 1 1.8798713152912323 4.60495802222759 9.457983060838977 0 0 0
39 1 0.3392752655683483 8.093637855097983 0.9985357196074772 0 0 0
42 1 1.7004414949846114 7.85702567970951 1.6855249178168568 0 0 0
43 1 2.7974176680336416 8.028549262363935 0.8083759006252573 0 0 0
54 1 2.6192983270668395 6.836970394174143 5.668317440279204 0 0 0
50 1 2.4186920871385253 8.604288649496409 3.7022837169226444 0 0 0
52 1 1.1878921690470765 6.493628965181044 5.600132309646597 0 0 0
60 1 2.9106881593661504 8.062387734766466 5.004903668669314 0 0 0
40 1 1.4413510924476092 6.27151263135194 3.2035080003879024 0 0 0
53 1 0.5522647836542052 6.32341510845787 4.3628439858132015 0 0 0
41 1 1.93105380675944 7.578075512074662 2.9837850242573003 0 0 0
108 1 1.2751811961411876 8.489192276422475 8.927894386755346 0 0 0
67 1 1.7476282140566097 7.160476410797967 8.604048759251018 0 0 0
71 1 0.7040112482560814 6.105479355416118 8.046621297473461 0 0 0
59 1 0.41353516961683073 6.812811227231766 6.782577706112183 0 0 0
109 1 0.1402800042243296 8.866003200546576 8.080685746132271 0 0 0
152 1 -0.08864487801255337 8.117410093725093 6.895464463007403 1 0 0
77 1 2.193646353872967 6.1075161164367175 11.23104886026668 0 0 0
76 1 2.266645213825995 7.547668768371193 11.714596055528215 0 0 0
75 1 1.4939021356860689 8.653487762862484 11.315049187077234 0 0 0
89 1 0.8576311120406999 10.359586601575083 0.9662454216131799 0 0 0
84 1 1.2339622022373158 10.302535135637143 2.3525713227788123 0 0 0
80 1 0.7140387806025903 9.239586227621045 0.17200970613528138 0 0 1
21 1 1.7550419279663427 11.780629017403834 4.910672415747292 0 -1 0
96 1 0.9604924326156126 10.910273047127575 5.714173454331131 0 0 0
83 1 2.362700037496353 9.91085750948526 3.1312195706051953 0 0 0
107 1 1.8148544782911533 9.164465824975435 10.031523274074543 0 0 0
3 1 4.346494416493905 0.5122333419726249 1.8492103105400626 0 0 0
1 1 3.4217079837134943 1.3389912327359401 1.1365773694182908 0 0 0
2 1 5.519595204441008 0.99859494850187 2.573696941438884 0 0 0
16 1 3.9478947662284583 0.1052969194403908 5.297368235571976 0 0 0
19 1 5.965732484651057 1.0027988614358734 3.858736992418337 0 0 0
24 1 5.653821344954152 2.5481388261938607 8.667315704429019 0 0 0
10 1 4.930458917694242 2.1071127309072 6.490309082121655 0 0 0
26 1 5.7493166374032345 0.41928099490410825 8.913779601174426 0 0 0
18 1 3.7486239214016104 1.5889926852260783 6.040724678443153 0 0 0
25 1 3.402591238986236 1.7549140536706263 9.649109607090752 0 0 0
27 1 4.370413562190466 2.7309552456083668 9.217658740199674 0 0 0
36 1 3.010386993831086 0.7959642830336151 11.886211490301648 0 0 0
48 1 4.106279226744446 4.440836149129236 0.4178202447166397 0 0 0
44 1 5.368091220154553 5.333217661002408 2.2321412733834953 0 0 0
46 1 4.229434430640009 4.391460577550825 1.7971546834493992 0 0 0
8 1 3.3873140254722958 3.4387635006631228 2.199521715525998 0 0 0
56 1 4.99847015827882 5.991607957683674 5.810337087157327 0 0 0
58 1 5.838193760789073 4.820170757012431 5.650887981769797 0 0 0
70 1 3.1166950261643716 4.928667356116899 8.6276446653469 0 0 0
57 1 3.199922513968485 4.639225689198564 7.058971732510565 0 0 0
51 1 3.5678015663888236 5.822909319043266 6.105873150735119 0 0 0
9 1 5.5266582009589476 3.0237512348714177 7.354793435994908 0 0 0
78 1 5.018009211757459 4.161177374623948 11.52304287463813 0 0 0
69 1 4.931790952632187 4.8882897211862 10.297556492808537 0 0 0
68 1 4.174473062457362 4.22997861846756 9.260974043033055 0 0 0
37 1 5.923858413266193 3.0431066133053486 11.70771558817357 0 0 0
47 1 5.426730971743489 7.889000041144626 2.082678070593554 0 0 0
49 1 5.791706054189001 6.538923134099599 1.505955159530185 0 0 0
82 1 5.044574506881194 8.913948826421608 1.1661133245560065 0 0 0
92 1 5.932345056945978 8.241707279881798 3.3119206313602256 0 0 0
55 1 5.966846839345283 7.070788237411613 5.800084596576944 0 0 0
65 1 3.138169243834202 6.702887788876096 8.715212225005471 0 0 0
62 1 5.619721832833936 7.4241932937520625 8.218524038515946 0 0 0
61 1 5.841726548569866 8.014483379513361 6.77375476939483 0 0 0
73 1 4.2726228006776035 7.638765354275556 8.692897341542464 0 0 0
102 1 4.292461341990104 8.989073466128128 9.23571866805011 0 0 0
72 1 5.806394007218823 6.0162637877664995 10.130605040294448 0 0 0
88 1 3.964767600690491 11.344511820940198 1.9169337944553988 0 0 0
90 1 3.6509429601238916 9.201158245418792 0.8233066030128603 0 0 0
85 1 3.5434593330407798 10.654791796409539 0.6190244082272695 0 0 0
97 1 5.544156825978654 10.033917134445854 5.301644692741301 0 0 0
94 1 5.246581285813857 11.478189179909537 5.312468465408461 0 0 0
87 1 3.223943286671519 11.070715722468465 3.1322817614303133 0 0 0
20 1 3.084806478163491 11.661482949721487 4.378879778616037 0 -1 0
95 1 5.999102314314892 9.628500803808313 3.914659332450498 0 0 0
93 1 5.428127064826271 9.422129021692731 6.536760484422752 0 0 0
100 1 5.347284943690366 10.44748668017558 7.716230492871042 0 0 0
106 1 4.8474762298936 11.781610218239026 8.170779974999174 0 0 0
101 1 5.5157154197698866 9.62321685711872 9.00949266337745 0 0 0
103 1 3.286830559948809 11.480997347206522 11.57487283342144 0 0 0
98 1 3.4715203293379777 10.965260837719892 10.182660030875997 0 0 0
99 1 3.155481025747331 9.620167422877687 9.819999655397659 0 0 0
33 1 3.675206328698114 11.7779252766028 9.07458567218137 0 -1 0
15 1 6.359588454077243 0.08588664023549693 4.94142966983626 0 0 0
123 1 8.666354993700383 0.9514751487301015 4.732308143698211 0 0 0
137 1 6.883125427247737 0.6812069220302515 9.584092335804193 0 0 0
134 1 6.9710114385311135 2.5814062046169735 10.80659376403965 0 0 0
129 1 8.275420544879646 0.48306595136715064 9.238435812671788 0 0 0
130 1 8.270087371265733 2.6356775677727784 11.300776993626938 0 0 0
147 1 7.557694037274885 4.957833287162681 2.377775762470989 0 0 0
139 1 8.8589356577581 5.592672778893454 2.1762093893940704 0 0 0
156 1 6.759152762465688 4.684419102697506 4.5823805331577 0 0 0
150 1 8.092801785881225 4.313868869727659 4.844896198142022 0 0 0
141 1 6.38322454995659 4.924720730441251 3.1369286234695735 0 0 0
151 1 8.561415844427465 5.204226668067135 7.185040666903016 0 0 0
166 1 7.404946494361271 4.455290414204728 7.579170126151536 0 0 0
23 1 6.211318031260341 4.11439830560485 6.880888042857955 0 0 0
167 1 7.545628528299447 4.111360890577818 9.005781107609918 0 0 0
165 1 8.48528185377032 4.719796870777616 9.898366143658782 0 0 0
136 1 8.792199032928835 3.9816415165767056 11.11940500217457 0 0 0
35 1 6.756025729414997 2.9959965757309157 9.459945464207646 0 0 0
171 1 7.8612214896097745 8.579805887964605 1.5738336239620245 0 0 0
140 1 7.7239731304178445 7.82446410128632 0.2788912867364722 0 0 0
145 1 6.781324717517343 6.684080491482194 0.42248383414472507 0 0 0
142 1 8.160661987435073 7.805237259826963 2.8341984770244575 0 0 0
144 1 7.148600861873707 7.626543745435164 3.781288875576751 0 0 0
148 1 7.229298778667411 7.250992366040594 5.061842302047649 0 0 0
154 1 8.479366865547984 7.110642988047331 5.601519089219224 0 0 0
153 1 8.627206148658688 6.614491598464664 6.916565630127836 0 0 0
162 1 8.68852895930188 7.657564745290313 7.759002338526559 0 0 0
184 1 8.40543215952661 8.983362959519644 7.436331758535567 0 0 0
188 1 8.09404583591979 8.259252344789353 11.186935966935255 0 0 0
160 1 7.853234876747403 7.377913357742346 9.966076760211479 0 0 0
74 1 6.493722425400741 6.921463791848608 9.231283955491898 0 0 0
81 1 6.546839783967177 6.140337036525655 11.34736820777838 0 0 0
169 1 7.131408116729077 9.862142130027348 1.8109981184392838 0 0 0
91 1 6.064477562824077 9.886059996385741 0.9181883576814704 0 0 0
174 1 7.933470720461965 11.173865238328652 3.609815420327208 0 0 0
121 1 7.831418761997696 11.907867995444946 4.8366804849089595 0 -1 0
170 1 6.905047775788494 10.41714519866913 3.0725062654495012 0 0 0
181 1 8.15078252790538 11.534867198886603 8.283322894848775 0 0 0
180 1 7.799810201393142 10.145886074140352 8.465443780856212 0 0 0
177 1 8.852182754088625 9.684133913814666 6.205195069011485 0 0 0
178 1 8.440073686623768 11.056668377441103 6.015668208221 0 0 0
185 1 8.936811133673555 11.917506555292853 7.092048950077646 0 0 0
104 1 6.783010387596295 9.938447810816207 9.383264570627206 0 0 0
110 1 7.252820593597633 10.1879233792977 10.682187696465604 0 0 0
191 1 8.520503183624916 9.601558282764913 10.968458765248071 0 0 0
86 1 6.366862530091441 10.35711632833163 11.769306119637955 0 0 -1
115 1 10.823144532373748 1.9520427560835492 2.089762473023267 0 0 0
112 1 10.171544233504626 1.9728878192730934 0.8090026642927268 0 0 0
111 1 10.21868053499488 2.2768780739554204 3.306860944645618 0 0 0
120 1 9.946015631358621 1.1773306425792571 4.1839759823028935 0 0 0
126 1 11.098805265311663 0.258763569378152 4.375994324235946 0 0 0
127 1 9.996102302992247 0.7522798878695499 7.59734335627784 0 0 0
189 1 11.34904700346583 0.1719121617865881 7.602344351681936 0 1 0
131 1 9.383051099362683 1.157635238198933 8.88987754852506 0 0 0
135 1 10.14470264860886 2.159795225827078 9.439929153182206 0 0 0
132 1 11.39981822270943 2.878457584715123 9.627236690048486 0 0 0
114 1 9.120437373067999 1.911888247771256 12.075235063882259 0 0 -1
119 1 9.768287068454276 4.982875458140361 1.347185515088631 0 0 0
117 1 10.994891166632843 4.722922638687033 2.0358700083524246 0 0 0
113 1 9.444347664833597 4.598103313114467 0.0948376298632833 0 0 0
128 1 10.226480838589131 3.5259955724589234 3.911000379106631 0 0 0
124 1 9.400497950214087 3.733115565323843 5.119625154403199 0 0 0
146 1 10.948829115614563 4.696947358823149 3.4373711652262373 0 0 0
157 1 11.258117653702715 5.956975067664255 4.028833702945208 0 0 0
161 1 10.438146145027122 4.873173913592621 8.61974511924132 0 0 0
155 1 9.867259700272633 4.557206445262075 7.414443453009147 0 0 0
125 1 10.35921031176722 3.825714907578672 6.3158099584579075 0 0 0
133 1 11.578494388456603 4.1748060348118186 8.992739691992808 0 0 0
122 1 11.787212150809147 3.662949089526436 6.106827175399539 0 0 0
163 1 9.488045853796638 5.609382776939731 9.290380913582892 0 0 0
168 1 11.579732049593158 7.149099382646212 0.7971634296273331 0 0 1
143 1 9.220448480822517 6.872263129052496 2.8341336615617387 0 0 0
149 1 9.509491991787646 7.7000490687506575 4.904069065126606 0 0 0
138 1 10.021566814569946 6.948293701048711 3.919832898039544 0 0 0
158 1 10.852937701060268 7.219187212423677 10.618736045967518 0 0 0
164 1 10.239284854225591 7.979276789320276 9.69559079423763 0 0 0
159 1 9.071604185663706 7.077951975092113 9.224663911053952 0 0 0
79 1 11.031749958980614 6.78576932711317 11.874386731024025 -1 0 0
172 1 10.215027523661844 10.220043229642506 4.180857703749625 0 0 0
173 1 10.912109541333527 11.162143949610343 4.805882630085985 0 0 0
179 1 9.262061391605423 10.76486166320404 3.2589543855720633 0 0 0
176 1 11.738432534879921 10.719212728525758 5.963242454284913 0 0 0
175 1 9.671239615072839 9.147944336700066 5.085242183097783 0 0 0
182 1 11.313272942442095 9.94264319039218 8.379595491775744 0 0 0
186 1 11.397098237414212 10.894370144000574 7.310479046689744 0 0 0
187 1 9.799899573120786 10.049830539894877 10.467382360810968 0 0 0
190 1 10.330618585231898 11.393173722729443 10.745990261294368 0 0 0
183 1 10.399877394220356 9.396851429481465 9.344292821778412 0 0 0
105 1 11.471593180804225 12.03877572811591 10.29059039567934 -1 0 0

Velocities

4 -1.2257404502203957 -18.83285442830113 12.140536638489658
116 -11.847277927292563 0.570901267374809 11.421152767175531
5 -3.1643899011091023 18.035606543160398 -1.9554781642045362
12 -0.41649405780840804 8.700500254143805 -16.748031901943776
118 -9.74364556708397 6.665943374661871 16.768504550822964
11 13.540156575575606 4.886287636966692 7.498018811182623
32 8.876489778704862 -2.4324559799453334 2.8523375023923103
31 7.724254836150735 -2.7330330659564703 -17.002864837732655
17 0.7898380894633863 1.5692716498476182 7.527353696709574
13 6.717676464623676 -21.0724354754511 5.796495443810604
28 -9.344684252074378 -1.6266627894537335 0.24370277841021942
38 -3.31700084160519 -17.592650211274613 -0.244965819339811
30 2.739112206096916 -0.508822024399939 7.258417348057966
29 12.95509045416402 -18.03172942714515 2.2325512003053083
7 1.9767019590640253 -4.243857938963283 -6.203588702172383
6 -18.84173429589285 0.3819047959725025 4.785398281441203
45 -3.534463814602247 10.668401891149683 5.005895147745482
14 1.6711094757850458 -15.30879995241027 -2.5780316060260664
63 19.030252912189642 -5.6512149187202745 21.165467055972684
22 -0.7369786737828137 -3.5155246258527244 -11.293500457299817
34 -13.177409158190596 -6.775690831714056 -2.586222406773044
64 -11.654160487984525 -3.7503640859898972 -11.964173338058194
66 13.433468072397577 4.757849849207465 -2.7065191740880277
39 -9.847544888491568 -3.846580883609768 -12.254696526649402
42 10.919103991724807 -7.127314648734182 1.9950659613423365
43 11.997988674313063 1.1639310865666799 5.83931312988879
54 -7.3029280440487705 0.05295401427961036 -5.118137792250157
50 8.011922980852884 4.673795758564582 -6.937827429651539
52 12.07027965618165 -6.383643163398619 6.87576283075132
60 3.06660697597824 -9.60574474660025 -0.8222837711029032
40 -14.791977850240325 -13.215740426442101 1.018524475711356
53 0.12674418530941878 -8.065811486811475 4.510762584817155
41 6.250399552288792 15.534485142772358 13.176839691323714
108 7.679084696407957 5.881655452663094 0.7167688766072539
67 1.6281328238022739 6.749331664715975 -3.932983683730466
71 -7.290182497375577 -7.235146896510807 14.95651093057253
59 -7.453153729318642 6.885285915408873 -4.402666025782386
109 -2.23138773251759 -1.458301923385213 -13.833430589842779
152 2.9014150860154126 -7.29543236023714 -8.70311905820954
77 3.0306770540702774 -3.952804384198842 5.445725934844007
76 9.175445544331989 -7.729930915073737 0.3869283956356485
75 -1.587046870416034 -5.901140655805047 -2.855976876215966
89 -12.122059497630183 -9.475606692986815 -3.5426510927491544
84 -0.16728553759956494 -1.7240012389486679 9.320697019129861
80 10.865456756209776 -4.084859834383771 -6.120516293657248
21 4.254655633222117 -10.456658539945828 0.5893171869680188
96 -2.09489619034197 4.294995741670325 -8.07577650445462
83 7.828537821702071 -1.8508949606184029 -2.6188586717930424
107 -1.8731849378215704 -6.2791729778176935 -3.256233656585492
3 0.6120825418420572 1.0257555193533747 3.4051624221460712
1 -6.53445290536852 -6.994775731727239 -1.58308003032652
2 0.21354160794759933 7.027918506460323 1.9129481423868477
16 5.983315574098832 5.190967021793635 4.886830665993042
19 13.603669785428249 -3.892337170742194 4.922206196253111
24 -7.580590664198363 12.387880602424481 20.998908322788544
10 7.841044878806077 3.5742471597397985 -3.2720207703783424
26 1.8575060231138398 -3.6813896511910555 -4.1322075569722445
18 -0.16941064671407752 15.452490038128069 1.8072584316780487
25 -18.625510030076544 -1.0069904564232157 10.360343233060332
27 -7.415920138895103 2.034647852066543 -0.2529348801879631
36 17.241564981427636 13.209007215315737 7.590333218220889
48 -5.964764647930158 -7.094659307546399 9.644711314956544
44 2.105587242423376 -6.282857881712023 -14.629765385402086
46 -19.30048877599815 5.925296987883888 -1.7970874118227123
8 7.267208983302551 1.5191783326263524 13.138009941813179
56 -5.895590759739538 16.242442856935348 2.3512151207471925
58 -5.302713856243076 -4.076262028118244 1.5164973669775426
70 1.2551476587130523 6.397915244742759 12.774942021670237
57 9.634854142495355 10.79508012258098 -4.624071336318032
51 -0.09257908980818426 6.842659429085531 7.703480175369642
9 -7.060072139188276 -6.946717972250539 18.437237868456858
78 2.145453287753764 -3.538578191328824 5.369371948266787
69 -7.632148194955055 -11.091777983527974 9.489310015453
68 -0.34084766692118423 0.20137675075995448 -1.4365178314286418
37 2.5696893177247486 -9.36719351988172 -1.4039633369714422
47 18.551804484313895 -3.746161479589496 -2.8999808292302447
49 7.183664594981459 -0.9467028083814807 11.781779147670267
82 3.0901731283644245 -1.7390000514242447 -8.772035680562688
92 6.175446313002865 8.447037067010493 3.995121808594332
55 -6.101240439835673 -0.33326904109428884 2.0382341600023075
65 6.271591938067544 14.424831525152326 -5.354618680112381
62 4.029955616892125 2.799887845123719 -14.838508064886074
61 -1.9920561194401774 -1.6823062928228323 -0.6908320745387524
73 -2.832273156547381 -1.614812509974697 -10.596842536300825
102 -0.9284478212467212 5.691662484645958 5.279749187168969
72 5.281852920278929 6.130587333706759 -16.56347484946142
88 -5.5760924297739045 -4.885590163153663 10.607906804936208
90 -2.0147444042381504 15.320056378118258 17.330387455562597
85 -11.246027422875889 3.2495082462047864 6.14569085775305
97 -2.717741855952618 12.65054009668551 -7.376689077173076
94 1.2010411021978415 -4.062470083437165 -5.987419292651331
87 -2.2014607949437726 0.35672989615887535 9.304863507090333
20 -8.587173234548079 0.22249353602858765 -6.022988149122467
95 -6.287541346273463 6.00560450525737 15.200294715667686
93 -2.656330637272662 -4.544720762135308 -14.25141105912864
100 6.799691703099372 3.86141106039934 -1.6222792152462149
106 -8.803044759688131 -2.8523189967492053 -7.048658257912059
101 0.5106159098197276 -5.622238331538079 -1.7074703763530472
103 1.8916877609459837 -4.864901613458286 3.850996378968174
98 15.580260772256747 3.359066839600993 -2.910695406427493
99 13.063555522639598 9.242286765536608 16.882643756125084
33 -6.108762027846232 4.748521002045749 -4.489535072225678
15 -16.71858296212656 -3.433057252328583 -6.440507173238178
123 -13.192058273944028 8.046355580196641 5.830876916186267
137 -16.773836762420654 -2.0459086962137825 3.3304869681133904
134 -7.001174233643086 -8.00794173468902 7.004456470362833
129 -15.294131319565121 3.6789209629192956 12.341149359384938
130 1.538051371853633 -3.4980569572498443 0.7166830849922012
147 10.900723858040768 8.849244001456869 -4.9170401642652415
139 3.0774756209686966 3.9976133245431353 -6.153470981776707
156 19.791688012697495 15.417064719630396 -3.018175711748436
150 5.09300553785292 6.666560785519128 -3.397931206307505
141 4.247071909433257 10.221082737908343 -4.159235979324361
151 -22.6613289750775 -0.8775186837595262 -5.024592028668048
166 -3.90512500098331 -8.673953519941685 -13.23105239649658
23 13.643564338645039 13.126338590343774 -0.5607591485390373
167 0.4196449226513802 18.023131356370662 -9.316342931456552
165 3.8561394390856205 0.7422014302905383 -16.68184614196069
136 5.330735667770193 -8.794787835572189 5.174889398321671
35 -0.5577718298919915 9.47205496113053 -11.479922641941252
171 -9.730654943416438 8.748397366110357 -10.935576282387004
140 3.118357696993714 -9.724110186031679 -2.4537587161717003
145 2.090248041167271 5.322379800971928 2.38076617201741
142 -9.529839860597685 -4.5676254627349255 5.340220746447427
144 0.7512955010175885 12.891719600768658 13.160032818618767
148 3.890096901742649 8.890559374829513 -5.775002936928651
154 -4.6225576792258 -13.904804068626003 -6.998414134663924
153 -6.533803471831274 10.182335376219589 -8.759484107203553
162 4.356108308448393 2.5648948028146874 4.901387687443771
184 13.158669779936972 -10.74559816688267 2.1303632328769004
188 -8.642659156598045 2.8137014110723713 5.320840567457379
160 -6.977845027772045 -12.448941741297167 2.9897888612176624
74 -2.400745176653437 -5.184929316963024 -4.734763857231834
81 -0.38551461460966946 -13.876892749390533 -14.38579790502159
169 -10.338397970083918 20.129439549980027 -3.390705021326608
91 12.667923994021743 -3.6655027429624054 6.946520991710481
174 -18.608748976762865 10.382615479632712 10.315505592245756
121 -0.5228204369898645 4.768551675198035 -13.366983082068272
170 12.904850882314017 -9.443467925283946 2.030821244243863
181 -6.588478658200761 9.653876414467373 -7.04093650473987
180 -0.9367278160291207 -14.303701106308223 11.462439180219972
177 -9.708623212026012 -5.416525796148354 -1.915174325333321
178 -12.599429158388892 -0.6417437551812903 -3.9561912659304173
185 -7.143446660606646 2.946337827900396 -7.296189212092977
104 -1.4301181727754495 5.512320760444039 11.246546351939358
110 -5.951142430587395 -5.352459299882188 -5.596788149587307
191 2.8932040535410595 0.8249272020994823 -2.699794594969152
86 1.604589981100596 0.4762194791969096 -5.749269050108156
115 14.548446860536618 -6.2923656589246955 -3.127296994115484
112 -4.083135531230089 -8.986195354798886 -2.743877894318726
111 -12.420256874983775 6.0400568825250955 12.630191608329092
120 8.069605285514214 10.061724676473625 9.847095421569012
126 2.830119734183584 -7.246537009471282 7.5375708797386665
127 24.12740724750496 -2.1719019533152264 -15.975135842439432
189 20.66654087320694 0.04717035978945715 8.121066799455244
131 -4.719633847991561 -14.693838449370952 -10.549607556122224
135 4.906296469807797 3.2718252115664006 -7.133865257625248
132 -2.021077507076297 13.928668747303217 -6.363330769523054
114 -0.4463132773587302 -11.406914977897967 -2.2805630301737367
119 10.139827089037528 4.371874221832871 9.603384633741278
117 -13.96582266364496 4.703636456752327 -2.225321466677647
113 -2.9690355427941775 4.10962422836611 3.0914324080407543
128 -8.146662271325356 0.9307408892334618 -12.182190170092891
124 -7.948725975458758 -7.929291043782598 6.785453648823418
146 -6.801828006209978 0.7591557438264509 5.243830597128133
157 9.00404714998111 -7.073841698867838 9.221771632260403
161 -6.322350062298438 4.799686770432923 -2.8455250887431998
155 -2.8159970313187817 2.563376404565393 12.158500047107129
125 7.264963911886145 -4.976698624074354 -3.8918307784355166
133 -2.18684290965473 5.519742971537737 2.365886663213866
122 0.0029976042828063283 -0.6428720554461277 -1.823616211782717
163 2.937104265137777 13.328924859432025 1.108668137432485
168 5.317848952732638 3.530765650160378 1.82287339513597
143 0.9949313057088071 5.402696291305273 -0.20029334152355352
149 -6.882928358721504 -9.210053016695772 2.7013099606963866
138 9.93552044142641 -12.064782487127808 -12.23281572087357
158 -7.67387998991092 3.6745922715025587 -5.431367626479643
164 4.035320629926718 5.042690336896617 -4.181307972917113
159 3.70618870552542 -1.3124218658230922 -6.446866319007346
79 8.151734846043244 -16.408695575275264 -20.397002714309586
172 8.092461366117233 -13.838498264045208 6.655580914261537
173 -2.967167573832824 -16.00659375564824 -5.670726852340469
179 -13.240385732692605 1.7345783539940107 16.914994100801124
176 9.961302034799338 10.060391142084027 11.026616249923718
175 11.988942164176356 -2.363603085219249 -0.208639516710886
182 -9.517670972181199 8.466105947844689 2.093662770378545
186 -6.141197530603523 7.099632540344223 -2.6159756599132
187 -6.036587387054413 -0.6118601760653546 -11.58565771560601
190 2.4134735086578964 -0.9916000027198795 -1.6523548583593106
183 14.513842489463391 -1.9767181781500167 -12.95014183046416
105 -0.36826380638294764 -0.16097104102139384 -5.633509556228098
