LAMMPS data file via write_data, version 8 Apr 2021, timestep = 6000

191 atoms
1 atom types

-0.09372642281419598 12.093726422814235 xlo xhi
-0.09372642281419598 12.093726422814235 ylo yhi
-0.09372642281419598 12.093726422814235 zlo zhi

Masses

1 12.0107

Atoms # atomic

4 1 1.2570385621119164 2.546767524941023 1.7859228235727909 0 0 0
116 1 0.31723102775858353 1.8109371501032818 2.482549418846856 1 0 0
5 1 2.712380210152706 2.4002586337005174 1.81756853794694 0 0 0
12 1 1.3982432250313919 0.853813557788919 4.564126048486367 0 0 0
118 1 0.2946681801249099 0.8781367316420522 3.6588519103263075 1 0 0
13 1 1.3017755042334163 1.4408470315280437 5.936886939109896 0 0 0
31 1 2.832119970964318 0.8636482208689007 8.741178371551571 0 0 0
32 1 1.4142502292103407 0.9420799945960425 8.331586828768664 0 0 0
11 1 0.6936436765312145 0.9343607907601743 7.0635683151407935 0 0 0
17 1 2.6476564454157114 2.237577693964772 6.144669393150897 0 0 0
28 1 0.49719410244339085 0.908830994726503 9.496347988617458 0 0 0
29 1 0.3773434402643769 2.2784580680898516 9.966440132154359 0 0 0
30 1 1.391633227962654 2.531383746807927 10.961178261952341 0 0 0
38 1 2.6780686749103317 1.9532960668138457 11.075686012667248 0 0 0
45 1 0.9235769763082674 5.510181364155316 2.3332409111764845 0 0 0
6 1 0.8998115065692153 3.6056594709344747 0.9096649987036899 0 0 0
7 1 0.12449281138735896 4.633610665956863 1.6133016477212285 0 0 0
14 1 2.2024405560591216 3.586758641217368 6.612090869373854 0 0 0
63 1 0.5863392144108068 5.285251178952734 8.899044917210476 0 0 0
22 1 0.8437843191849044 3.7774315791020605 6.312665034544248 0 0 0
57 1 2.8190191220195486 4.6653814534818565 7.249111138466074 0 0 0
34 1 1.1471249202500446 3.800417150493199 11.69153980034636 0 0 0
64 1 1.6409852901364115 5.045753060276867 11.059377571336988 0 0 0
66 1 1.8325237208723326 4.93312632407267 9.572325133107201 0 0 0
43 1 2.245700977696179 8.074966083630471 0.9221605977880182 0 0 0
42 1 1.1018653163702308 8.11720627677339 1.7291837345544443 0 0 0
39 1 0.02416464280537126 8.795892296705983 1.0746540207734065 0 0 0
54 1 2.3849684021679907 6.536293255907721 5.544804299482407 0 0 0
50 1 2.2425273204477874 8.457406897747958 3.8144401470515574 0 0 0
60 1 2.829360353819797 7.737667273938353 4.898141454948541 0 0 0
40 1 1.0470501114847777 6.431615659770348 3.341438387058025 0 0 0
52 1 0.892071804285563 6.508862887344326 5.6652883742866775 0 0 0
53 1 0.16015474840550112 6.203615463758805 4.461897613846897 0 0 0
41 1 1.3263840374039015 7.774723029784754 3.080478517389828 0 0 0
108 1 1.7008464669138612 8.640555557876619 8.812770757716324 0 0 0
67 1 1.9393714272515683 7.2472539793157145 8.473751510252738 0 0 0
71 1 0.821852066553068 6.46306233978106 8.112670751440053 0 0 0
59 1 0.1974572889427215 6.768804844392286 6.881584430805629 0 0 0
77 1 1.7135249199212326 6.350168430629342 11.587782019346317 0 0 0
76 1 1.755721898997374 7.71294610881244 11.856427959576664 0 0 0
89 1 1.3426186399216136 10.693923694309497 1.1002953908289967 0 0 0
84 1 1.2723411529127144 10.585228841075516 2.5027248544444265 0 0 0
80 1 0.6311942795452373 9.838025822737658 0.24019487441014226 0 0 1
83 1 2.3045285287882495 9.842592041828762 3.4050202257137334 0 0 0
21 1 1.9679251108332925 11.779427393181187 4.98379709047681 0 -1 0
96 1 1.1753683583961547 10.804985023639405 5.609966747864383 0 0 0
109 1 0.7404241677164772 9.210858406725523 8.103442581647846 0 0 0
107 1 2.012791500910642 9.19622708120158 10.0706285440084 0 0 0
75 1 1.285560680719406 9.11588651267028 11.236693892372475 0 0 0
3 1 4.18967784167787 0.4729092930489009 2.034240366285649 0 0 0
1 1 3.3798352768390565 1.3160485372924227 1.1731783735771881 0 0 0
2 1 5.461286963962979 0.8187547270268221 2.6191023716833937 0 0 0
16 1 4.285998895739582 0.12973550852111257 5.24665822556193 0 0 0
18 1 4.057668462326876 1.6309321895353375 5.953939467658775 0 0 0
10 1 5.122632412892214 2.059693363440258 6.6593587179445555 0 0 0
24 1 5.75910389243887 2.7608334440330404 8.878831804850973 0 0 0
9 1 5.828425726218735 2.875786545939652 7.506815741789401 0 0 0
26 1 5.877365729646816 0.4568217116919906 8.365397051306221 0 0 0
25 1 3.2840605394025237 1.9325230212389983 9.76555545703206 0 0 0
36 1 3.1793113907710318 0.9733331461890936 11.962665267812655 0 0 0
48 1 4.342535011726 4.766856310408423 0.6378784971391699 0 0 0
8 1 3.4326349343947427 3.4207084819680085 2.3343961198916414 0 0 0
46 1 4.342563135231609 4.437352301736962 1.9835078398761352 0 0 0
44 1 5.28122265183926 5.190581254931782 2.711855046935659 0 0 0
58 1 5.788434449974208 4.6233070038044275 5.920135108083924 0 0 0
70 1 3.002047287190412 5.11552490507523 8.729732057986578 0 0 0
51 1 3.4316900434810504 5.698523363646309 6.094579197958696 0 0 0
56 1 4.873359833933406 5.770172237402593 6.018553733391113 0 0 0
78 1 5.161848390167724 4.478422812606266 11.77113212607901 0 0 0
68 1 4.080233674027555 4.377932644973004 9.536887261388749 0 0 0
69 1 4.973612653884768 5.065044893210201 10.463801131397414 0 0 0
27 1 4.303290756285449 2.9724753432146307 9.346404906261823 0 0 0
47 1 4.6748672260597335 7.762647206462575 2.6649216078303133 0 0 0
82 1 4.604519114624609 8.536949779258029 1.3534188641088662 0 0 0
49 1 5.38488624913329 6.594035932362788 2.914878832042549 0 0 0
55 1 5.687558944362884 6.975091932381176 5.933025373893409 0 0 0
92 1 4.848419106814275 8.704811284815172 3.7179960463418085 0 0 0
73 1 4.307022922248033 7.614788405327468 8.815797512472896 0 0 0
62 1 5.592624762601877 7.418835695997398 8.318600372215604 0 0 0
61 1 5.713357050215533 8.059068060123018 7.0150122094392175 0 0 0
65 1 3.2402944349042326 6.670873315075121 8.716047574780475 0 0 0
72 1 5.737613187747511 6.2604495718435835 10.361747116070525 0 0 0
102 1 4.3858548959783015 8.962303760888783 9.4471048046851 0 0 0
81 1 5.339845505329307 7.078085255653054 11.437055751236144 0 0 0
88 1 3.8346189031084186 11.306560348409793 2.0160875511499676 0 0 0
85 1 3.1268245924675533 10.490177024089759 0.5880290458306996 0 0 0
91 1 5.719038282889595 9.228001036408743 0.7939994837905847 0 0 0
90 1 3.3437613780436735 9.060436407483284 0.8833539266514436 0 0 0
94 1 5.526836124442024 11.66963784110978 5.411108912678677 0 0 0
97 1 5.572607170547057 10.238686374486466 5.478150145485702 0 0 0
87 1 3.384001655382775 10.73978459216353 3.322271308414616 0 0 0
20 1 3.3490142863742474 11.698371209284247 4.5113872407006035 0 -1 0
95 1 5.776073275906221 9.80392008915176 4.038727109963769 0 0 0
93 1 5.270820335902876 9.505304809363723 6.638888496244789 0 0 0
100 1 4.993666010766116 10.36140468012194 7.7401867052676545 0 0 0
106 1 4.6847693735680656 11.64658347118928 8.152450807430892 0 0 0
101 1 5.5998899723398 9.748219599664303 8.883943634636886 0 0 0
98 1 3.3601175049139456 11.164155099241182 10.215537356727282 0 0 0
103 1 3.1986020934652264 11.741182035030238 11.506944937755257 0 0 0
99 1 3.346279060828437 9.739670157170583 10.067638243259058 0 0 0
33 1 3.561228896692122 11.883231313270684 9.065975667976874 0 -1 0
86 1 5.81189570818957 9.783009080687789 11.727990925913193 0 0 -1
19 1 6.369491258152464 0.6935389684807721 3.559394539141731 0 0 0
15 1 6.677414464407041 0.15289874634843034 4.722162896010706 0 0 0
137 1 7.020749603572014 0.6695897663966575 8.940337724103843 0 0 0
134 1 7.14209799384421 2.9171932295298717 11.127506423600877 0 0 0
129 1 8.339582155843441 0.24161697127067236 9.099159159682614 0 0 0
139 1 8.626712192196337 4.8787407338849205 2.2135637754538218 0 0 0
147 1 7.53942830660608 4.012191448740523 2.536890818127129 0 0 0
141 1 6.355742864698689 4.283613146573854 3.2581889282667724 0 0 0
150 1 7.925849947017455 3.778428651434141 4.956205000018158 0 0 0
156 1 6.5697483846069105 4.20195861753134 4.702062794678713 0 0 0
151 1 8.476185863387615 5.34778005566494 7.12996990441938 0 0 0
166 1 7.403093726191709 4.669409729467026 7.867872940854413 0 0 0
23 1 6.389861397160059 4.086269010030131 7.043716627068485 0 0 0
165 1 8.715345206632632 4.779429609755493 9.996433508806698 0 0 0
37 1 6.188238868895384 3.5104324148498356 12.020571854669361 0 0 0
130 1 8.56167776127303 2.9971812999898395 11.568636968811942 0 0 0
35 1 6.879073212049228 3.1848248549649996 9.770821497356355 0 0 0
167 1 7.592759590747771 4.29692867042944 9.222818540170746 0 0 0
171 1 7.784160641206848 7.948613243391586 1.4513735940502253 0 0 0
140 1 8.198177298893402 7.638217755440805 0.16899120054313221 0 0 0
142 1 7.830011671065334 7.164245748132065 2.6414246617358983 0 0 0
144 1 6.667213077928617 7.034896495350733 3.510359358562705 0 0 0
148 1 6.738923200804593 7.148078567601407 4.907601117577104 0 0 0
154 1 8.052040446991915 7.109125820357578 5.432591593744737 0 0 0
143 1 8.773322844100504 6.140557389345769 2.98211167183008 0 0 0
153 1 8.345523495509154 6.7379663279946325 6.709599220155145 0 0 0
162 1 8.802821892406843 7.7777227228962555 7.531245555407215 0 0 0
188 1 7.977316163916145 8.4536564996163 11.030901233676262 0 0 0
160 1 7.917056441106966 7.527780085320834 9.826509970368376 0 0 0
74 1 6.541306135663843 6.963192532552123 9.403745014111598 0 0 0
169 1 6.818697923130535 9.103738434712183 1.6106940766923912 0 0 0
170 1 6.824458429219551 9.83635071925633 2.850917076847003 0 0 0
121 1 8.10149971294551 11.992088617213698 5.012690900434066 0 -1 0
174 1 8.17858180566191 10.323414631900292 2.962235713649235 0 0 0
180 1 8.089832503561793 9.884245084226384 8.44755506640683 0 0 0
181 1 8.59796175531244 11.227175847997644 8.282245040293697 0 0 0
178 1 8.607383394963835 11.122543086143004 6.013905810060632 0 0 0
177 1 8.847022113663645 9.703367792967008 6.095219886638249 0 0 0
184 1 8.55034922546031 9.08739015758321 7.372528072421009 0 0 0
104 1 6.850763367584534 9.644481666206348 9.380974887668096 0 0 0
110 1 6.8605162819072305 9.490799567499327 10.728354842929038 0 0 0
115 1 11.110476219628717 1.9463634739633808 2.002607667185447 0 0 0
112 1 10.491682703994773 1.8418634546832016 0.7150332148725564 0 0 0
126 1 11.283911975479835 -0.010736456173894699 4.062697230248029 0 0 0
120 1 10.289616372600001 1.0090293193656221 4.134228887223741 0 0 0
111 1 10.34074860527527 2.166027048119341 3.2614952032994564 0 0 0
123 1 9.061437119189096 0.7613711970859963 4.795863681557299 0 0 0
127 1 10.19992801284781 0.5319554516080122 7.538162126206507 0 0 0
189 1 11.596626362105185 0.2333118957145705 7.333987361986249 0 1 0
131 1 9.440496721186259 1.267214676565993 8.578490785718019 0 0 0
135 1 10.276386058630983 2.3799001221872276 9.114781691698301 0 0 0
105 1 11.715891700722265 0.11142043928367822 9.983312840064658 -1 1 0
114 1 9.505552216950113 2.0318000815977153 11.956747007841146 0 0 -1
119 1 9.83134767139398 4.745333724771584 1.3386230697995245 0 0 0
117 1 11.005084566299727 4.5965122469056805 2.0453212794380926 0 0 0
113 1 9.421048405657789 5.22189582479423 0.10119659973759172 0 0 0
146 1 10.8550750683819 4.5502227002767635 3.4206283768661416 0 0 0
124 1 9.388358971877542 3.6042316379995634 5.066901385781792 0 0 0
128 1 10.110863742663925 3.444588615739397 3.8717861238774214 0 0 0
157 1 11.014936814808339 5.830291171867339 4.118533341321365 0 0 0
122 1 11.710989396975961 3.8043616716931448 5.96678586180807 0 0 0
161 1 10.461601354915466 5.048344765236571 8.43158728213426 0 0 0
155 1 9.718465351124749 4.737935318155804 7.204432620359949 0 0 0
125 1 10.28194159733926 4.053094047688403 6.112017735412904 0 0 0
133 1 11.630426406519012 4.397794865572115 8.983498616694316 0 0 0
163 1 9.526951828936287 5.822163807820652 9.300577592346395 0 0 0
132 1 11.49700517887572 3.1385540964321774 9.450819590551903 0 0 0
136 1 9.07924456201678 4.335848716150278 11.293668075782051 0 0 0
168 1 10.959128300901435 8.286903489895126 0.61493819523191 0 0 1
145 1 9.299682151371618 6.66097642352489 -0.03596470465619601 0 0 0
138 1 9.793456400609166 6.624673622363809 3.905689353393924 0 0 0
149 1 9.193569256753259 7.595986490135608 4.690698747389526 0 0 0
175 1 9.567001691902671 8.993964093548161 5.118015007820678 0 0 0
152 1 11.260361329634751 7.539214721740336 6.840874602484257 0 0 0
159 1 9.16434189358072 7.258400563835966 8.95712041690567 0 0 0
158 1 11.00744736128807 7.520998300200529 10.569988313164629 0 0 0
164 1 10.447474242580371 8.028883476718095 9.333657333728478 0 0 0
79 1 10.592439655327082 7.306337854744974 11.917326421108335 -1 0 0
172 1 10.267633454890753 9.883427223093534 4.133036954927139 0 0 0
173 1 11.281588907490482 10.827223931409652 4.567529338428155 0 0 0
176 1 12.032055862345794 10.487534347241624 5.715555265369968 0 0 0
179 1 9.544053096314281 10.056765068036396 2.989337550457864 0 0 0
182 1 11.707253006650884 9.8753235657295 8.067789684819815 0 0 0
186 1 11.56678439027134 10.906094071450864 7.0555915451016125 0 0 0
185 1 9.271179461798148 11.612144824864764 7.134114197805816 0 0 0
187 1 10.170368369697256 10.233191393573914 10.150172331248934 0 0 0
190 1 10.731880752395735 11.433115362993913 10.357680598928871 0 0 0
191 1 9.226612205101787 9.502144826887353 10.812600364810416 0 0 0
183 1 10.707672794835538 9.484567112271769 9.05335168435068 0 0 0

Velocities

4 -6.418016770668165 23.143452550851997 -8.140529823350313
116 7.698294710600046 1.7046176051468467 -0.7857372382030834
5 -4.556663442177417 -5.468075503083317 -14.48830188425042
12 3.947210573272089 -9.262636606317622 -17.406800123481112
118 -10.859999051714059 -1.8232146936557865 -11.514897661167778
13 -2.494506348519687 7.062092302094593 -3.01226141890552
31 -2.406830057428319 5.259119286099134 -3.032048252543799
32 2.7768623722295978 -18.076770895419425 -1.123609768238602
11 2.2647424984875557 8.703863851004733 5.253768164774482
17 4.773725317176772 -5.186257798579622 -1.9855216598526537
28 -6.973057170074918 9.118643754701544 8.448467746574336
29 -15.341352175238864 -0.6154845637787251 3.4485424469778954
30 0.6138317917266818 9.39258340549034 -13.232220758711211
38 8.1641171492045 0.6040870486651627 -13.059296446496171
45 2.839393788221206 -2.6159758673761373 -1.2002270906019141
6 -12.856515945589761 12.075042478163192 3.689303574299124
7 -5.810598751826137 -1.9693661906235709 -7.82513094686527
14 -6.740127522977942 5.066547644173746 -6.511095574495238
63 -0.8990064072688825 6.24999222334141 -0.755486134857223
22 5.186578935469422 -8.288332058323599 -3.648970183923796
57 6.660095868496516 4.753412583572427 9.235225010436348
34 -1.2525098490802669 -10.230298631743182 -4.566843313804893
64 5.696624926364295 0.4343743091295751 0.9601164786542153
66 3.379195348218389 -16.41376013317297 10.601037423634775
43 -5.651659049191259 9.799246336900095 -12.736670245629117
42 19.499867159984476 17.51229564026289 8.169752005215264
39 -8.160389883909126 5.152540308655363 2.1629035294435495
54 -21.39973414636455 1.700728694632479 12.610504444602778
50 7.208266737076714 1.5020835278858875 4.142689512019003
60 -3.9443821985506995 1.901872485493555 17.003292273675008
40 -12.83614500019182 -9.3361874237154 1.910567958697338
52 16.724671992321884 -10.805016205268629 11.263664908291775
53 5.9367660162416405 -1.6644943560408392 -0.7621346688263417
41 -4.477058878139136 -1.7540748545698466 -6.876464017123849
108 8.68415797230411 8.486404076898264 10.801050692776052
67 2.178999167863278 3.0602949994630935 -13.441171328094367
71 4.110701625050589 -2.136723614520398 5.834600799961077
59 -4.5008675376951865 2.651501523734289 2.744695881684909
77 7.975998371525973 3.3700314555130904 5.339767387590112
76 -1.3075442394903636 6.656863056660732 13.671869800671436
89 10.433486967045114 -3.9175630648209046 6.521121125429169
84 -14.121353292783693 -1.3883798484425847 -1.6912694975032334
80 -1.7625662255920391 2.5934855245141497 -0.8921875593278499
83 -5.186432754656885 -6.202669308734463 9.462834235037187
21 -0.294848083151927 16.201447764245085 -11.07014856469034
96 0.5514719134968923 4.975268257780561 -7.692802352617681
109 -3.3763225456884887 -13.75605203717786 -15.429583201052251
107 -6.830005518192075 -2.2648408964112097 1.2744179126145811
75 1.0796965708931126 8.283478035644825 5.807304971109856
3 -14.79901276977769 11.715563555974342 -14.729909778983924
1 6.117985193234637 5.130150263618009 2.942090397284526
2 -14.725019254329721 7.310092218902303 -13.439579052376622
16 1.6554901952149956 10.082716794233804 8.991792193442052
18 -4.94697227975383 -9.963254147696075 2.2320442310988713
10 -5.557100520757662 -4.662411581440376 -14.325923609160562
24 3.0885086268848845 9.107649389573716 8.847192660900795
9 -2.600702991984164 12.41821831965524 -8.513761346287934
26 3.5514890560141588 -8.016807027809497 -4.480445360237531
25 -10.103668012888376 -8.142408596334953 -8.074781494931269
36 6.7093326689185036 7.410165602600807 4.8052591586659155
48 -4.98804212619131 11.989581439668314 1.518760078691053
8 9.024893981317355 18.056374537197364 16.78104497191006
46 -13.915280670899177 -6.73038605273089 -8.045808573745667
44 -9.336486228744409 -0.75537970586703 -2.912738587779885
58 2.1619760935699825 10.430629875718951 6.8921799683914875
70 1.7734708568445614 5.8302050165270884 -0.3263275301584434
51 0.36794267249111795 8.485916700151781 -6.96905998883467
56 5.037247784392463 2.902526959077105 14.893743341376547
78 4.625851738340639 0.19232387215637384 4.454069978174074
68 14.59607887742326 0.43344934891971554 -1.6444430727174413
69 -3.006914894654024 -2.757601301592355 -2.9300962048000594
27 -18.758498509357054 -9.85677359411234 -6.79726516938132
47 -2.496731493126238 -2.5794986751866835 -10.753216560321171
82 -5.000517463146116 6.142380893455689 4.646577989838651
49 -1.791330066556404 3.877612366660091 2.33809822322815
55 -0.9771679284474253 16.07317472354825 -16.578730650801106
92 11.488799735815034 -11.836888929726591 5.236129596488043
73 1.9825920504381607 2.684219216154548 -3.36448177914224
62 -4.0822384385185675 3.721685760698112 -4.225027037035518
61 -6.050768285436689 0.9716126497029013 9.592501856735973
65 -8.417216191624801 2.940017379535861 -11.786352069714985
72 5.827897649534099 -20.323501911165746 0.44652220743205995
102 -5.696243131063812 -5.989711696871103 6.541133801162537
81 6.074127287583619 13.002585867504319 -4.9204003929627245
88 8.309554316043489 -6.095205033695907 5.018746301263201
85 3.061509399840459 -10.933052257725974 -2.9696306608967697
91 -17.493910654268323 0.09831820021120732 2.321250053258318
90 -4.196043731775387 -3.631933634037259 3.7118703177849195
94 4.342165580453954 1.7782294829605922 0.2647904290757055
97 -4.6861055216427205 -4.379374892414882 4.578142533800516
87 -6.378391019807106 4.748711266958936 -1.6847473403565385
20 -0.7684918906527034 3.8574208214000487 -4.8814069376216365
95 8.50952610382645 12.737133012327877 11.968867988588462
93 -11.727782157435794 0.7609388366391012 10.02235625869047
100 4.250554297352535 -2.741837662746088 -8.701625403808224
106 -7.157590809828327 -10.393936490727189 -4.740488283940231
101 15.954543344616813 11.600393282967483 -7.361133927124227
98 -5.783274005121438 8.854864568437268 1.301922953296129
103 5.862032199391682 0.8377900705170677 8.357505075653274
99 6.164935728813147 4.633600923337513 0.8487664197316869
33 0.7584189656034057 6.467907759717653 3.7525543049160217
86 -1.2854471202725326 -0.2715761146624096 4.476231132185483
19 5.205190263744705 8.097662440102233 -11.205110928104542
15 4.973457659060121 13.845832455904437 -8.777877469093177
137 2.7681586956552318 5.418173634551185 -4.371097323076135
134 11.242769462618893 -17.10318212918654 2.902652715327064
129 8.211906256675432 4.816815211755195 -10.480110641015264
139 -18.038663966100504 7.974881132313274 -12.771107508972735
147 9.001410953531128 1.9501381656270673 12.948809099212761
141 15.987583711858925 -8.660095107853254 5.99835617572846
150 -22.74571251190101 -0.642327106540777 19.699811298305114
156 -10.17403293563746 -4.4529869383347185 -8.007124093183856
151 -6.088325625470583 -1.9458215365050413 5.504838240243711
166 -22.71427425961856 -10.987519949622826 -7.428742360701211
23 -6.656044074325137 -9.858496140453207 -10.56617608843341
165 -18.43286788566528 11.989877237219238 11.06794604626136
37 -3.3131211085559973 4.764720326851108 -11.57341701213281
130 2.0420841303256045 2.8577678400417925 10.766485238545103
35 -1.6728341224081307 3.0010102431711627 13.183413183566588
167 9.215039098350438 -5.164390087882989 5.120174504407612
171 4.997813256788067 -10.558041203120666 15.493558163531187
140 -4.352814230490887 -4.3270892779188035 10.95530622501407
142 14.242172523292579 0.6056913340061073 0.7971957483042699
144 -5.31082898086373 17.183804609643666 10.146615809485745
148 16.09787481031968 -2.7622577501518686 -7.91959871511567
154 10.375047758344339 -10.83782178766403 -0.11423738562529494
143 3.234879488734694 -4.6322367758400445 -2.8524695658415262
153 -1.119070089672478 -0.24561349053166254 -2.8627017792665748
162 3.4185019441798747 4.119420342220161 10.279690261858768
188 10.824185107879087 -2.073745298475061 -13.108278738523826
160 -7.214646776152614 -2.881670026590111 -7.382118351511819
74 0.7350628690584644 0.3093091176266619 -4.531620191341394
169 17.099279917153307 -1.224891296902359 -5.285489174659036
170 -0.3224358196688082 -17.401532202659133 -7.076263436430042
121 -14.312710095384672 10.746937412826446 -11.61773857779593
174 5.766938465636116 2.2514587297517905 12.297459230341564
180 4.157726599639062 14.514874932912072 10.75833254763485
181 -1.1283776586961656 -16.591847416046885 -0.48318021419228513
178 4.196520544409116 9.071643734341183 -4.429025251223964
177 12.393748843982781 -4.779785817693785 -19.196356804326665
184 -9.087969403714752 -6.252291102088074 12.931602361617612
104 -2.3518299099561153 -2.5219685634183113 8.498272292186371
110 5.1086219134823585 -8.067168844769483 7.696767904570895
115 8.560368329797992 20.851375572067475 4.452351665727408
112 -11.227940520799784 12.459857411364686 4.049241050904362
126 12.34660239713213 0.570998215375172 -9.129712619050258
120 5.598433933522239 -3.15019599638685 1.3753853056422853
111 -4.831844798506178 -12.868087413152017 -17.45141735213775
123 -8.966520106948812 -10.360141816594888 -4.9372846286680945
127 -6.239633377050657 -17.012412970976712 -6.372581800851406
189 7.846775947920897 3.053546605833394 0.22486495580335542
131 2.0588561357925603 -0.08406130403749487 -2.162863979778236
135 0.013286685898998372 -2.917624698375175 8.187998793210319
105 -8.392991693774054 -5.194271863641424 0.989398399364454
114 15.680386288786353 -21.351271221686474 -7.63456377780365
119 24.533197907332443 -2.1803003964876106 -5.151288656237388
117 -15.002073369800227 6.9340554632377405 26.478451740280164
113 -6.193817976188991 -3.854722763668307 -1.619101122478973
146 3.1063352555358823 4.857983844306508 -3.6823647728328464
124 -1.013715015504101 3.686655241040524 -3.8026275752519076
128 10.094024361677352 3.806082619140014 12.734648603085486
157 -9.340552222737204 3.9386018995171588 -0.8877586182320003
122 8.25140755314326 3.088953108254479 -7.648662676286721
161 -3.6410441113965533 1.0052387687428121 13.453317401245672
155 -3.7399153474418045 -11.224179599758411 -10.98171652015098
125 13.329544691122468 20.197670915100076 2.9293913848342257
133 2.617244161054938 -6.867379099505511 2.3000589265394145
163 -0.9729106209477629 11.991641610957398 11.474992670385673
132 -0.5507323183645705 -5.996448925604675 12.65468463924399
136 10.590904554145524 -7.170975858002298 -0.9977288183321918
168 -2.538778170986905 -12.809581638148545 16.78480516352688
145 0.8883745997122855 -9.562103129837022 -4.679275529608372
138 11.897855192259456 -12.369337761154684 12.572975284837636
149 -1.8044645186416415 9.125320612207513 0.515325982477918
175 1.35912735094334 3.6994835500222236 3.018220572076204
152 -5.217403666385111 9.85743354371494 7.124920526228348
159 -13.893443625930995 -4.227378817871838 -7.0635241220078155
158 0.3057549621169665 -9.368909596752657 1.866187837931343
164 1.2026993588422834 -15.498550743864167 -10.770179909883172
79 6.305896010527439 2.1713025008178377 -9.946591831219505
172 8.740578846248836 2.7312328225943894 -3.9686170152088103
173 -2.3478311569761767 -17.69393649842585 2.2082410884214596
176 0.01265695743632743 7.9076993553100845 0.6536125997647436
179 -3.9577416123707505 -4.059176313641744 9.356838999848215
182 -12.588180405055283 -14.744590655658085 -7.83127396098563
186 -1.9501847036171533 -11.569996635425316 -2.6382245031830993
185 4.589710637231598 -3.317769800109246 6.8647035084993115
187 0.3866844079190138 -7.820444665029144 1.956178953613694
190 10.540169400369633 -3.648491419764333 -7.656594222824356
191 7.822968583611212 -6.563933625331223 -2.512135450115755
183 6.976218845898842 -9.457915330436556 0.19099579456069848
