LAMMPS data file via write_data, version 8 Apr 2021, timestep = 6000

191 atoms
1 atom types

-0.12825806778357973 12.128258067783557 xlo xhi
-0.12825806778357973 12.128258067783557 ylo yhi
-0.12825806778357973 12.128258067783557 zlo zhi

Masses

1 12.0107

Atoms # atomic

4 1 1.2960589883594988 2.4562539745255 1.7860752631759467 0 0 0
5 1 2.7408746190631743 2.6196061342517423 1.736863384194319 0 0 0
116 1 0.09230541023227908 1.7695502772912446 2.4912686432857556 1 0 0
12 1 1.11836390111623 0.7813077581223958 4.8801070464207035 0 0 0
118 1 0.1486188238401462 0.9549536472452648 3.848911863099788 1 0 0
17 1 2.5764589708212013 2.2274052070360537 5.961425096271807 0 0 0
31 1 2.69141093593854 0.8322082841639318 8.96404601411153 0 0 0
32 1 1.25432088271874 0.9456424383841032 8.567693508288263 0 0 0
11 1 0.6480907444857285 1.0112523647015732 7.263244499736541 0 0 0
13 1 1.2912349553483156 1.4878169923143192 6.06052636161447 0 0 0
28 1 0.410211308208791 1.026387574278254 9.683912532286413 0 0 0
29 1 0.3334719470700347 2.288574305526677 10.235949154682466 0 0 0
30 1 1.381622494177248 2.6574177308079947 11.113047772162478 0 0 0
38 1 2.522927899225908 1.7644242034186883 10.943990079253656 0 0 0
36 1 2.9325458645047946 0.5964430155087229 11.746011732732313 0 0 0
7 1 0.2939910067069329 4.6251128373809625 1.660272769706455 0 0 0
6 1 0.7912984653846102 3.5799463125750814 0.9538120465786987 0 0 0
45 1 1.060119725689181 5.605639281433975 2.194627396121058 0 0 0
14 1 2.2840473638772516 3.7448089979768957 6.4203171717528615 0 0 0
63 1 0.5776808898507162 4.992158587514574 8.664996791202324 0 0 0
22 1 0.7841907531825615 4.032282493208499 6.498878352170182 0 0 0
34 1 1.3202868771069107 3.8033277041953713 11.918338543326714 0 0 0
64 1 1.5825483561241274 4.9601150154714215 11.15293070777278 0 0 0
66 1 1.4074789178483287 4.76853932147552 9.72074767715101 0 0 0
39 1 -0.01891539709767993 8.40210332289312 0.7468522452590171 0 0 0
43 1 2.3850583645418997 8.241103133893152 0.7484848383364734 0 0 0
42 1 1.075464806971584 8.104064048603258 1.490671499372748 0 0 0
41 1 1.2376056435543743 7.8269234872700455 2.865813179573539 0 0 0
54 1 2.6061049116665993 7.056003670845726 5.427247741181049 0 0 0
50 1 1.944843430530989 8.807444668837851 3.5886378561880643 0 0 0
52 1 1.1219038769276979 6.657716404069956 5.58537011705009 0 0 0
53 1 0.13028775950823324 6.570195647649288 4.3864274883982075 0 0 0
40 1 0.7862904906384698 6.619325149020032 3.246407932161964 0 0 0
108 1 1.6213293812320988 8.329322097589076 8.54814038687289 0 0 0
67 1 1.9416825317196136 6.92760456987168 8.234886374074433 0 0 0
59 1 0.17307389826868472 6.619088273298092 6.713096790389069 0 0 0
71 1 0.8562019011381414 6.137115189819433 7.958532353324082 0 0 0
77 1 2.0494174063054493 6.2504996953102925 11.553303330183578 0 0 0
76 1 2.1637562238670713 7.652985615784058 11.79563938510593 0 0 0
75 1 1.2787542345190286 8.654867181553673 11.123201280249157 0 0 0
107 1 1.9475436490433653 8.956404206194064 9.901132457489384 0 0 0
89 1 0.7054680553991964 10.617417519373005 0.5281054693574279 0 0 0
84 1 1.0930896212856906 10.514673192849822 1.9112179585579558 0 0 0
83 1 2.0568655808025618 10.103966114342905 2.919349921640562 0 0 0
96 1 1.1277802431792887 10.703506763478082 5.282867069061836 0 0 0
21 1 1.8409343006716514 11.739557421299116 4.858229368118648 0 -1 0
109 1 0.8134785766136226 9.116400009649078 7.689232354039922 0 0 0
80 1 0.4242195115518426 9.454498712933535 12.0377332280864 0 0 0
3 1 4.362108667802726 0.32115493252295074 1.9106046053910013 0 0 0
1 1 3.6161067139454133 1.4656441748984312 1.71909425861497 0 0 0
2 1 5.641073846629859 0.5418111830285331 2.498022553045642 0 0 0
16 1 4.145692127105955 0.13313300261310368 5.146058258000366 0 0 0
18 1 3.9310213040550384 1.5386669305768133 5.727297747402816 0 0 0
9 1 5.8802794758139205 2.797673039654354 7.262211302940292 0 0 0
10 1 5.042037507945212 2.229725108707917 6.32315306288975 0 0 0
24 1 5.662722105900901 2.3224613053091177 8.566105817233314 0 0 0
26 1 5.806357873648291 0.7591509963095825 8.664894544022388 0 0 0
27 1 4.146245606057861 2.7345199197010843 9.059261945756614 0 0 0
25 1 3.238339218979003 1.9682287250011579 9.699628947968716 0 0 0
37 1 5.826597367105301 2.917485443772858 11.532219394193847 0 0 0
48 1 4.696831215089482 5.134650746077361 0.34762959058469345 0 0 0
8 1 3.409430355407181 3.911052919822443 1.8710333360566676 0 0 0
46 1 4.42422206247867 4.857206172968968 1.6584682195079168 0 0 0
44 1 5.402142116148784 5.305339258538942 2.68502802178121 0 0 0
58 1 5.882835485193825 4.70156188368519 5.7606946950579125 0 0 0
56 1 5.005574719403005 5.992792211698139 5.713410150894676 0 0 0
57 1 3.108929666611432 4.943342450714476 6.796957645381231 0 0 0
70 1 3.4996852042609055 5.14899688512421 8.258592101932804 0 0 0
78 1 5.13577866743344 4.080745004304551 11.626501711633635 0 0 0
69 1 4.837679896086735 4.763865054453675 10.328241543645612 0 0 0
68 1 4.1302049620084915 4.230288895390069 9.178840658387418 0 0 0
47 1 4.656226926926512 7.8067677250457885 2.5423415797374997 0 0 0
82 1 4.56540277159675 8.638029582699424 1.3706442873274083 0 0 0
92 1 4.26491892828942 8.534509011078558 3.8207123298973205 0 0 0
60 1 2.9612883298880486 8.253772880416923 4.456197358525578 0 0 0
55 1 5.862339131733498 7.167330713760162 5.847741684924175 0 0 0
51 1 3.5142273718000214 6.110701747559844 5.866320975329551 0 0 0
49 1 5.567795020197387 6.685006841692849 2.9730341816956884 0 0 0
65 1 3.2844166082635287 6.534337556384127 8.593569527392722 0 0 0
62 1 5.631842904332713 7.237241167960028 8.255093734575718 0 0 0
61 1 5.6840318403479175 7.999609047616935 7.011758767105055 0 0 0
73 1 4.119620062501889 7.601480802273618 8.7407183598566 0 0 0
81 1 4.953486537101509 6.324190037444389 11.844532795729378 0 0 0
102 1 4.257058861275204 8.854557285266582 9.461581242459244 0 0 0
72 1 5.361380066413601 6.160888946597023 10.509383102649027 0 0 0
88 1 3.6529520736091117 11.386176630143837 1.8368426340619857 0 0 0
85 1 3.294724070673384 10.630766604636426 0.6799935762408092 0 0 0
90 1 3.3624382024961803 9.237611009354595 1.0160707778132376 0 0 0
91 1 5.679572830582644 9.169952894084103 0.9388516835033512 0 0 0
94 1 5.414600621061708 11.557467160256875 5.170509086875527 0 0 0
95 1 5.403386675455583 9.389977633816354 4.188900868183563 0 0 0
97 1 5.3816108945083725 10.085040904012631 5.46166578907827 0 0 0
20 1 3.1168804696602423 11.81857841821871 4.321466962546332 0 -1 0
87 1 3.17173955627737 11.005778045777392 3.116890469772316 0 0 0
93 1 5.567208325785504 9.509730363876528 6.748196575941712 0 0 0
100 1 5.370869043687643 10.434810107046024 7.946417900799348 0 0 0
106 1 4.990805651844745 11.810690594760864 8.325260612346135 0 0 0
103 1 3.2703605194819225 11.4079862876892 11.522313152464276 0 0 0
98 1 3.389564777950065 10.984851154222323 10.196476863651743 0 0 0
99 1 3.197988523232166 9.606318464486163 9.94274185250581 0 0 0
101 1 5.569634508820093 9.467897685154124 9.145305877960604 0 0 0
33 1 3.612483545255557 11.848985662004699 9.112928071604804 0 -1 0
114 1 8.975327637367204 2.0756065375843864 0.11713653746497174 0 0 0
19 1 6.443493348996081 0.5939056597356788 3.540729132319089 0 0 0
123 1 8.866011435903275 0.8894372936864114 5.111929673310886 0 0 0
121 1 7.968736541298563 -0.12413196223884349 5.412101774145232 0 0 0
137 1 7.139992194400339 0.5176300638646095 9.332048695103504 0 0 0
129 1 8.489812718602012 0.2723964234853999 9.24282515210081 0 0 0
134 1 7.0600098192225245 2.6096319938075965 10.823805360332717 0 0 0
130 1 8.359139372248903 2.7472402067391406 11.35379412093941 0 0 0
147 1 7.665957620392485 4.440995818309211 2.4349243460095344 0 0 0
139 1 8.777045792072178 5.136731479974857 2.054449423019628 0 0 0
156 1 6.700453053092449 4.362028846583025 4.547907939122488 0 0 0
150 1 8.001470106558756 4.1078232650611275 5.063155363472546 0 0 0
141 1 6.4502482726550605 4.477385299421656 3.199085659357449 0 0 0
151 1 8.389487148986163 5.360319038790111 7.235797741212493 0 0 0
166 1 7.325736870550153 4.680155478585778 7.895837860206842 0 0 0
23 1 6.291017229834276 4.174690968045431 7.049026048683464 0 0 0
165 1 8.4930676337402 4.754126576637949 10.118759714856692 0 0 0
136 1 8.877556133957548 4.053163568365135 11.252750099794735 0 0 0
167 1 7.459615794995759 4.2645136019886225 9.280572652692065 0 0 0
35 1 6.758440776909238 3.0861854379969684 9.550398967324435 0 0 0
171 1 7.727670134401995 8.218242681207336 1.6615002590330537 0 0 0
142 1 7.8513867388596035 7.222620016429272 2.5791711807706017 0 0 0
140 1 8.634997811879934 8.442137566103835 0.5568282847085649 0 0 0
143 1 8.940558442942491 6.296802773773868 2.857579091311645 0 0 0
144 1 6.811933967583607 7.1954966809350696 3.5331559556176004 0 0 0
148 1 7.00481340234225 7.138375666309758 4.949396044139393 0 0 0
154 1 8.25536205044331 7.150134895127679 5.520252094418701 0 0 0
153 1 8.428966120377547 6.776777007872597 6.85836811360081 0 0 0
162 1 8.7185829642137 7.707326271214809 7.9467112213129285 0 0 0
184 1 8.535200148441506 9.040832618575248 7.557181337834654 0 0 0
74 1 6.1603032841802445 6.7683382647849015 9.539133669577438 0 0 0
160 1 7.449536173813649 7.142637505934133 9.888538611190835 0 0 0
159 1 8.691906057583118 6.9553337347199475 9.160359192574472 0 0 0
169 1 6.658620126880309 9.134429907353256 1.9553888043695762 0 0 0
170 1 6.480314365489215 9.649563599079922 3.3508015657058747 0 0 0
174 1 7.659334331599903 10.443351658337608 3.559913761440738 0 0 0
179 1 9.047224153346516 10.232088120377117 3.3279051883301656 0 0 0
15 1 6.684828108816678 12.067792329725334 4.679484798553444 0 -1 0
177 1 8.701206282780063 9.715773828601735 6.368366496896988 0 0 0
178 1 8.597839067503925 11.152851414185882 6.289328046316635 0 0 0
180 1 8.140519276001339 9.968097750116529 8.737653450418543 0 0 0
181 1 8.75639358922244 11.250616022196844 8.506980162041938 0 0 0
104 1 7.000053525253023 9.64249480325578 9.585861465105026 0 0 0
188 1 8.458648028108556 9.151901942231035 11.511571192630765 0 0 0
110 1 7.102603680357907 9.397973764503773 11.025688763443076 0 0 0
86 1 6.057534311437124 9.505161871647239 11.946317820925078 0 0 -1
115 1 10.850885310945038 1.9968081684131587 2.1750475030820895 0 0 0
112 1 9.844467963634449 1.6534891496442956 1.1168883905842215 0 0 0
111 1 10.145092620027187 2.205178740824312 3.513441367343983 0 0 0
120 1 10.027159619825051 1.1304757934878324 4.356691374388561 0 0 0
126 1 11.149065277643858 0.18605325489739166 4.327779362831421 0 0 0
127 1 10.26180339761727 0.4817282208549995 7.652707682404894 0 0 0
189 1 11.63539160169739 0.09526506581726084 7.2825868529668325 0 1 0
131 1 9.681107372975212 1.1571961555063393 8.864527902729705 0 0 0
135 1 10.261642153208644 2.355331529235276 9.501011449266619 0 0 0
105 1 11.972485790066527 -0.011153470080166317 10.19414552549398 -1 1 0
119 1 9.885832351092743 4.719129276041023 1.2331922434204352 0 0 0
117 1 11.140293396302017 4.6818064691144645 2.0391931684916065 0 0 0
146 1 10.860976518381452 4.809337640515933 3.3845267297685506 0 0 0
124 1 9.438056194987928 3.8658430503767254 5.211890080862317 0 0 0
128 1 10.161547922879778 3.5943580393845966 4.114241976819947 0 0 0
161 1 10.460689056018667 5.154645093343528 8.534579914773245 0 0 0
155 1 9.664809942851003 4.665062855389648 7.415435692859256 0 0 0
125 1 10.27810566090839 4.0208639662056695 6.368844432348335 0 0 0
122 1 11.707533446414729 3.621632752003717 6.359348120399829 0 0 0
133 1 11.577607595539492 4.418495056540654 8.88125112588865 0 0 0
163 1 9.429150135056101 5.6945143215687395 9.410007259792627 0 0 0
132 1 11.52448183709546 3.198717221048238 9.70469241199977 0 0 0
113 1 9.731022015608762 4.716977423468166 12.106404360963982 0 0 -1
145 1 9.841183089092459 7.9310173012333784 0.7607003694872532 0 0 0
168 1 11.108281140641266 7.745368416169555 0.3303355077884432 0 0 1
149 1 9.367275191467789 7.746378441565146 4.856037048311349 0 0 0
138 1 9.89950424631149 6.799763251676615 3.8804737340158586 0 0 0
157 1 11.103555374326595 6.090212549638178 4.113361498334921 0 0 0
152 1 11.13051965114275 7.127082440293735 6.540617288439429 0 0 0
158 1 11.469767267720906 7.143179441777402 10.054825848232516 0 0 0
79 1 11.312717104209039 7.0594504946312595 11.377275223086057 -1 0 0
164 1 11.49399661725123 8.049945546572815 9.106903946459186 0 0 0
172 1 10.01601343558909 10.202030101872628 4.447992952834418 0 0 0
173 1 11.153490727440529 11.00578634174833 4.6157722876500475 0 0 0
176 1 12.043899261884876 10.72997350765078 5.6121857939529045 0 0 0
175 1 9.504402595712662 9.131537833504149 5.281385185753937 0 0 0
183 1 11.09387255249604 9.421233966936432 8.936703655649476 0 0 0
186 1 11.702831450070157 11.004110031724863 6.991878632889372 0 0 0
185 1 9.400052763403744 11.643660614096706 7.301641499312299 0 0 0
182 1 11.886627949988847 9.920801421153783 7.872860773948659 0 0 0
187 1 10.524321396175479 10.147835576517856 9.959058371284875 0 0 0
190 1 11.37800105523625 11.12752369225047 10.388857742969838 0 0 0
191 1 9.55978589091052 9.70845302726597 10.869749426866852 0 0 0

Velocities

4 8.632287242153497 5.515250027557471 -5.945638543125058
5 8.121877816037008 11.728527155211882 -16.942527079063314
116 -3.4043551064516504 6.809085206010551 -10.219629276598848
12 16.842745671268244 -3.999394788117124 3.629499378371588
118 11.753063097314733 -3.69540425592241 -0.9479324064624158
17 4.42174504233836 2.2707446662534925 -10.4366313980482
31 -7.461705700250038 -9.962195691465634 -16.498468819712357
32 1.7195390346936061 1.4624707605622467 -6.637758078285718
11 -6.354280667720774 -13.864890286222764 -0.5061270971879371
13 16.906223912034964 -17.24867357993284 5.749385297189096
28 8.692681196973906 -16.76723087328143 14.48529693036146
29 -3.762999007497044 6.399324458714931 -14.848702030076758
30 -0.7023095833303669 3.6488616981425346 -18.649661799392458
38 -2.1313268791949813 -2.2082757375884365 -5.206632559721095
36 6.9907247276217035 -1.1539616491028564 6.6412482851413195
7 -6.4891295981092 -1.0580057528804023 0.9658907958224725
6 8.158553373908653 20.3454514205705 0.24151797012561513
45 4.144478718781621 5.045753344551294 7.262501501593835
14 -1.8294373419421432 -4.9136995227886 6.928432114889681
63 -6.85173119483062 5.922692511597463 -1.8599222388571242
22 -12.250875272862501 -1.3725865158223507 -2.1213604419657672
34 -1.5176029084734186 -2.1289045380499476 4.544411772329018
64 -6.060694054206589 -5.907454484389196 2.5902410016216733
66 17.22554405337991 1.29714105007755 11.707557378055887
39 11.319887236091084 -2.170388554480287 4.393405950726961
43 2.8319358973842075 -12.139079492927918 -1.0698557218001092
42 -0.9139065805998156 -3.0565395913529514 8.12283671948868
41 -2.9040738957259364 7.719735640162999 6.1840126469587275
54 14.805455607702472 -0.5791404472583599 4.522215105167071
50 0.0982425359480707 0.10013111147600408 -4.633836018604219
52 2.991973021647214 -1.9654176237967058 9.3117889507644
53 -1.2429792284811294 20.506970047606142 -7.659862706385372
40 6.3878815562494164 -8.380442294598366 -12.25977808503016
108 0.6792080755774084 -3.5868704836851304 8.6639022887582
67 -1.0022904964394141 12.297242258164554 6.226392155306143
59 -9.068410319194532 -7.74484785245664 -4.726552252992768
71 4.8136369799021415 -9.913956514139004 3.548875772270386
77 6.981127119226211 -1.7941793900489833 -7.182253797293869
76 8.858069393163829 11.648447872105713 -5.4595256924166105
75 -0.631892676054055 3.2455687235534167 -6.194968374862856
107 -4.693151689360576 8.297671750978711 4.1996227399345205
89 14.34190096135105 -4.676354804204651 -9.56784392767521
84 -6.6470506480234945 5.165455785718306 2.4893283575459364
83 -14.887580541550037 11.261818624177282 -0.08707157174227077
96 -10.989602445591643 -6.609317224491108 12.385725236140358
21 15.553322503896387 13.90175129017048 4.5351714843874
109 2.130649293372019 -3.5442196991135813 -0.32016004185258196
80 -3.33253954670231 4.221389487857222 18.917559689482058
3 5.285546218916237 -3.7028637062191985 -9.083651609351119
1 -9.922577614025677 -4.966920387603008 -5.088725744769851
2 -0.43603005285874213 -20.630539169169133 0.603598232740317
16 -10.957359512361746 15.733432775290167 -9.486634036053442
18 -4.441264741551369 -17.705266332746923 17.67639806839197
9 -3.151733390272437 -2.07232935064645 18.404552103672284
10 0.05027116115856256 6.935848833344164 -1.4095049235026618
24 -9.921350864893888 -13.02380210402249 -5.924458679486653
26 2.1713059740869105 -10.919484438529931 4.888986641327961
27 1.0540407115211976 -1.8386630294544484 2.0780844702749963
25 -9.038394973888465 2.949497420896332 -6.267397769829632
37 -8.620028633776613 -6.70559538919568 -8.60253029984458
48 3.088561245521771 9.461812101318532 13.808049392778942
8 0.6113825448024128 -4.9991977969602415 8.234479708786036
46 -10.118477301740098 5.759562637568856 6.324213323348777
44 7.278938279991358 -14.987769341235369 -4.823241928493086
58 1.9000405647356335 7.997072887883447 1.167560884874685
56 -9.410460036628551 -10.143900567644192 -6.223386018265985
57 -7.249741257579869 -5.6842691203220665 8.460030277085703
70 6.035905032514901 11.281248354808705 -9.905880402833272
78 12.478562883509653 -1.628868033942961 14.092587015754813
69 15.763051449416846 6.898660501729682 13.53424721126901
68 -2.415323793536371 10.494220015135095 0.6882808283234496
47 3.129423677038843 -7.289730229779228 -1.815959178824474
82 -4.010292900739764 -5.052816393061812 0.8445850811650398
92 0.8750032486980974 6.045926793407485 11.618623915046726
60 -4.1780370109519955 -1.284627109235695 -10.77691807228052
55 -1.8524197158048326 8.04721973743814 -6.544533787476863
51 4.313138524620007 -3.619074940303543 1.0113842354949005
49 3.4991395693604934 -2.7063679881609906 4.259506489582664
65 -0.4211504481520953 8.470764856047829 0.2535210085101788
62 14.77373554536792 0.2672182772668453 -0.3725802017527909
61 -3.3452547726888624 9.146064343413796 4.501762750655618
73 -13.089870141225132 -0.9543149676193757 -4.241700660710278
81 26.120154220639094 2.4714871923808492 -16.637957881811605
102 -0.9039855656787467 13.041666298265111 7.061736205166776
72 -8.277732678387684 -5.1522787583934875 -9.497752756482718
88 -6.920651961896922 3.6789780440999738 14.476569192608977
85 -5.963223636501967 -4.56715045373447 -19.47380163384951
90 7.905728450183918 8.204515178497894 20.549943582764193
91 -2.0023923450280483 7.329538225811468 4.71045023431228
94 -7.2148185443345705 5.87631843883758 8.859553613249803
95 0.7884473294426398 -7.696375101600678 -9.69450406561674
97 -9.83249651679637 -3.8971525601199937 -7.900582584460535
20 -10.7987094160035 3.5769172517295877 -10.011723796796916
87 -5.770593414188785 8.732639969781564 9.754172115858589
93 11.852772056622683 -2.5391912972957806 7.436994447087444
100 -0.06897328151648015 -18.0245880974844 2.084126505167779
106 -12.805014087424311 11.347498274413994 8.409626028819387
103 -1.3477206586056871 -16.20309623642994 -11.680197232174978
98 -10.680105588804825 6.201523557579475 -2.6918338625551654
99 -9.245443011501044 -0.12718583807236905 -7.58182508075449
101 -12.190489030525054 3.0560657600915446 4.740960217991642
33 -2.5508604488013296 -2.4001207167483947 2.3794859077777515
114 1.9235037023650796 10.095007621982312 -1.9587493700304082
19 -3.643388780461072 -9.81089899667279 -6.335120338270627
123 6.533780292715489 14.939753184266607 3.2901283615455164
121 -7.299916363239813 2.145638601221436 -14.906870065996463
137 -21.023405811315836 16.555743693307193 6.783780984442205
129 -3.46335638651166 -1.2712115296431612 -1.0447326713753058
134 -6.743631782455815 0.17131568554950408 0.16018258020898896
130 -1.8257940764390022 0.684520482422853 -0.9496210541529234
147 -13.396367513019865 -9.21374284438997 2.498282601883761
139 -12.932941977220338 3.178536980388181 -5.527055040255295
156 -6.152452529874051 -1.5361207879378016 3.480515656964895
150 -1.9714481835396516 -2.9599229266182463 2.3774170066888725
141 -8.174790095388948 -12.151938032245011 0.9417656754547903
151 4.184782763510418 -0.015372547405752616 -8.602381333384049
166 3.649996134183946 8.14143927359985 -0.09878421178355194
23 -7.716734916598193 -6.9547195197930245 4.600144121203406
165 -1.4339337557156104 4.942367617470822 -14.794560737432409
136 1.1726118052689227 2.273572405999088 -6.7770469115619765
167 -4.7249086125001964 0.6938223723575028 -3.11946070257165
35 -8.942591789469706 6.703296890944464 10.981519410259171
171 -6.24525675392667 -2.0759274522930977 -0.11712037099983337
142 12.132032005785955 9.14169099760969 23.397569600924637
140 -22.46253712535796 4.027921699197736 3.7165536617156323
143 0.7922467544658541 2.7698457143692172 -6.229872438809877
144 -7.166059412125121 -3.8105712783948276 23.596896958585457
148 15.802427276316964 -2.658716425350787 4.850312986682227
154 -0.25275755513341164 10.525343714845263 -0.14382089387535307
153 2.780231709448776 4.497262932415047 0.3064720305651842
162 8.835773301748855 -5.364145121504905 4.072428758398037
184 9.824689414394825 13.47662717360824 6.192620157203034
74 8.778548742222599 4.7400829500045765 -8.528112528875402
160 1.3821152934057033 -14.570673047989537 9.467217935211657
159 1.8876174323083978 0.9509362444923685 -12.228812019381976
169 3.896781629453421 -11.43779694966446 -8.104123843273646
170 -3.3298328412225056 11.72169828063377 -4.7997327643273
174 -4.467286495829906 0.014192973165726656 3.3165104845939544
179 9.609894028023723 -10.038447979487046 8.26701486621533
15 2.4607856299256223 3.4037753389654113 -14.334031993913653
177 -4.247255586455005 -6.679120290418112 -8.792716909378873
178 15.434476190049523 3.8673159571602893 16.472740346533918
180 1.6543302573029994 11.524806970259332 -6.067615794418651
181 0.5944759663049256 13.788936230460795 12.619693692191019
104 -0.5974416507994144 -5.2507311161292165 -4.047036659369067
188 1.5731329255389652 -6.593892778681396 -10.803493100918624
110 10.481051621524305 10.901551348052012 13.345856140543223
86 -2.9533902723171166 4.201471280500326 1.504525439547391
115 13.904891847029061 -8.106493386714863 3.4525832279778284
112 -3.948266145502771 3.5091135407016703 -12.099547992345364
111 -12.304382077712871 -7.560403554084618 17.591215093895755
120 3.1235477326383485 16.555715335768685 -15.28479174272662
126 -6.6908191288690855 6.305317850323792 17.53181513023178
127 -9.128789145096214 6.3375384420788174 12.586060181720379
189 14.369604867661067 0.693552786494522 -0.6724967991551167
131 -9.786179315445342 -4.565809054904878 12.211616326940142
135 7.898291292647801 -2.725359548799294 4.234320005719748
105 7.710376574206751 -6.931307851888033 1.70506177434257
119 2.6674140316810653 -6.08203457464745 -12.829160554533095
117 8.516729868264305 -4.896338299847212 0.5031800971236651
146 -4.943840813585187 -4.174824154802246 -10.486902987115622
124 7.856903514889353 -22.26788545001145 -14.838643343586055
128 21.614348516356902 4.663531575887369 0.8136071471513314
161 -7.752410530902523 7.1067737474780275 0.9726535206466227
155 14.694309890395633 -5.956824704051976 -11.356061402841922
125 -5.0765989239590885 1.3556525538274173 6.573598714586444
122 -1.4636276774908374 0.24946347636369692 -8.207263799966986
133 14.331996408364622 -12.483568678776804 -7.07845457385383
163 -2.0936183981970307 -2.5750687375650547 -8.757061284656187
132 -1.1239146328759464 -3.9305670041403475 -6.197176460582989
113 -1.3912978182621758 2.303818413212333 0.7762379479413039
145 -6.028934650977754 -12.779210744776691 0.991303970560962
168 1.0514155851869085 8.417895422709572 -2.7276772861685865
149 -4.3904215729362015 -8.325301078740697 2.3509867847314947
138 -8.564719052640488 0.8716464685075834 -1.5663503282160116
157 5.7742270088388254 0.13187557130664704 9.831977724482146
152 -8.663633560944715 -0.27090714943330096 3.6924860548975986
158 6.874787273876707 -4.857668773875787 8.513970268834948
79 1.2413227863465564 -6.778949248977486 11.540128781293896
164 -4.254746200747521 -5.903844788197342 -7.585522262617921
172 -9.875926881170683 4.421281037484779 -19.04517326149131
173 2.845213204466714 -12.593767447391237 -12.963765893762789
176 3.8270723225830117 11.616773708087232 1.071605035921066
175 13.563701893717898 8.935391860918939 -1.223680071831126
183 -12.989469412387006 -6.083801594467328 1.81022372044237
186 1.4468364075185502 2.4250075500518533 -0.013114569759965639
185 6.399596303633111 -7.2204748287569265 3.1568845990712924
182 4.350557212250876 4.225327427791972 1.7690392786196858
187 -6.431738175121345 -6.214534646454432 -8.796446400632389
190 11.90176220429033 -8.688435994811394 -0.3910473133675829
191 -13.374377266271239 13.310968022080397 -4.930401806318737
