LAMMPS data file via write_data, version 8 Apr 2021, timestep = 6000

191 atoms
1 atom types

-0.13727711003631277 12.137277110036344 xlo xhi
-0.13727711003631277 12.137277110036344 ylo yhi
-0.13727711003631277 12.137277110036344 zlo zhi

Masses

1 12.0107

Atoms # atomic

4 1 1.83890455064996 2.7222020026856777 1.20418090283705 0 0 0
12 1 1.1475000835804627 0.5378276221147343 4.812584416525094 0 0 0
118 1 0.12318228671091072 0.4536442272153443 3.843936824588616 1 0 0
31 1 2.770740021369923 1.0330523802043872 8.809664970692753 0 0 0
32 1 1.2771196894005723 0.8080674121697482 8.581392518553645 0 0 0
11 1 0.5643158380565184 0.9595882551116768 7.217642914054984 0 0 0
17 1 2.5290968465000843 2.0510424057048104 6.254969486425082 0 0 0
13 1 1.2778055870578366 1.3203945911528996 6.066816486410421 0 0 0
28 1 0.345712687743875 0.9297869668337231 9.608364450390809 0 0 0
29 1 0.07534002838324626 2.2209192862572213 10.151030524319761 0 0 0
30 1 1.2236372425645996 2.682412934509464 10.858167219635163 0 0 0
38 1 2.3909377013635216 2.099514451763573 10.844608895926909 0 0 0
36 1 2.6362651675738995 0.8261376691872218 11.5591162385256 0 0 0
7 1 0.3844615930586265 4.556404820893441 1.4823987037216704 0 0 0
6 1 1.0673644033865293 3.700577237832664 0.598233530355895 0 0 0
45 1 1.2435280085883675 5.453149783394453 2.2447545048812287 0 0 0
14 1 2.2005485223152497 3.483789488701431 6.458804311253426 0 0 0
63 1 0.5362070315145149 5.037258520657334 8.617262024456226 0 0 0
22 1 0.7888163752907273 3.886431743319302 6.159938276458519 0 0 0
34 1 1.0869922947488266 3.9089581246780027 11.50333066957622 0 0 0
64 1 1.7121800632048778 4.985224544647351 10.736218527300876 0 0 0
66 1 1.721617983770878 4.797829349148171 9.26748238632629 0 0 0
39 1 0.3525805184546658 8.1786199930066 0.9753600909868955 0 0 0
43 1 2.6989605676081445 7.900457847255444 0.7150901799140259 0 0 0
42 1 1.5098712764220688 7.777790335366129 1.5861924231868474 0 0 0
41 1 1.653882892131753 7.602103753732291 2.927200962234425 0 0 0
54 1 2.4552600908991926 6.584968464462389 5.564338507256425 0 0 0
50 1 2.322664694193964 8.502913911009275 3.817893757860891 0 0 0
52 1 1.010474512050957 6.4717780998010195 5.581224757421798 0 0 0
60 1 2.8872901158308415 7.861000800431781 4.968824946619838 0 0 0
40 1 1.2165301699866913 6.359571175782141 3.2690296609701237 0 0 0
53 1 0.31135276380832927 6.226895913463872 4.336414170245608 0 0 0
59 1 0.1013331945979369 6.624482192233961 6.6476733557062655 0 0 0
67 1 1.8012385889781672 7.197524268790625 8.373913119252027 0 0 0
71 1 0.7031461218502381 6.332209352611491 7.888824353830076 0 0 0
108 1 1.3959247139952409 8.497119138672682 8.846606803237286 0 0 0
77 1 2.076605543692327 6.130094998067378 11.309934262279267 0 0 0
76 1 2.2291612646531354 7.4463779647345625 11.679453977789091 0 0 0
75 1 1.4787796166971865 8.71376160735411 11.30998085734481 0 0 0
107 1 1.9584188225673036 9.064090582188188 9.980767099314848 0 0 0
89 1 1.454529841790038 10.400759995032521 1.078997977743415 0 0 0
84 1 1.117055376306664 10.279045180243259 2.515917009658876 0 0 0
80 1 0.8098977590394297 9.327076760850831 0.22909283756587623 0 0 1
83 1 2.204118159101554 9.886281666224662 3.43202865043787 0 0 0
21 1 2.000424916707132 11.637870600396386 5.107592268895691 0 -1 0
96 1 1.0445671986055864 10.638322525572605 5.5501450183919445 0 0 0
109 1 0.5898963446630925 9.214006616229545 8.096879716499721 0 0 0
105 1 -0.11866566758701325 12.051420372726465 10.311907584673184 0 0 0
3 1 4.890080436279577 1.4174624394754356 2.1884431349609588 0 0 0
1 1 3.714515981896758 1.8853073362261503 2.2456717349533344 0 0 0
5 1 2.9470327893611663 2.928919499669264 1.9655496289656311 0 0 0
16 1 4.280771188349517 0.2323325135411503 5.326996827345496 0 0 0
10 1 4.887557079688581 2.0383653797968297 6.717490344071323 0 0 0
26 1 5.801180650857846 0.28503736360429327 8.820078232258746 0 0 0
24 1 5.286131936636809 2.860794383879475 8.919015410260224 0 0 0
9 1 5.505907936812155 2.9011094276229326 7.508852806893989 0 0 0
18 1 3.8017794589335985 1.4664150216990361 6.078060334639103 0 0 0
25 1 3.1455578482158026 2.0876945437759225 9.640280788392829 0 0 0
48 1 4.5058940570233394 5.356725695614937 0.5868008475812104 0 0 0
8 1 3.335716126580004 4.205002365745704 2.3642361306301636 0 0 0
46 1 4.3294614681407815 5.208892226893124 1.9387050400639638 0 0 0
44 1 5.529954700418933 5.525164038386118 2.5901361895308903 0 0 0
58 1 5.923642934097038 4.49992554552982 5.6207308593741 0 0 0
56 1 5.054965968997644 5.683238575479017 5.595969296933163 0 0 0
70 1 2.9979375872664606 5.271654926643575 8.510572676678374 0 0 0
57 1 3.052748783747256 4.690301931655691 7.077758365258359 0 0 0
51 1 3.582519206950633 5.63659472439201 6.0876807034812765 0 0 0
78 1 4.865663942409114 4.66012414585643 11.697628002167125 0 0 0
68 1 4.064906927727616 4.59641728291859 9.496747593392623 0 0 0
69 1 4.835943312124865 5.3946833389184565 10.47819107735344 0 0 0
37 1 5.648159305847591 3.5013808791223995 11.933123993223292 0 0 0
27 1 4.045279335763578 3.2191161898662424 9.443045831937185 0 0 0
47 1 5.014813899547361 8.155479572835864 2.387574973587304 0 0 0
82 1 4.864916029097354 8.935642425159122 1.2131963116799107 0 0 0
49 1 5.703322572733053 6.945842647553187 2.728944287486111 0 0 0
90 1 3.5108724354417147 9.016198172113514 0.8490442275186912 0 0 0
55 1 5.796547205069378 6.979480038344166 5.604438931629317 0 0 0
92 1 5.075960851705996 8.966788777526393 3.5306743815870427 0 0 0
73 1 4.238322829564821 7.565849363607345 8.565157039973538 0 0 0
62 1 5.5138385923520605 7.429385060695757 8.075926633809022 0 0 0
61 1 5.8630968172219236 8.040258812509952 6.731679002793283 0 0 0
65 1 3.1918087664497015 6.696054343324858 8.491324574287129 0 0 0
72 1 5.521085182772807 6.618819612750338 10.358715581962903 0 0 0
81 1 5.329947393703931 7.8792622525992435 10.982338690963173 0 0 0
102 1 4.123256600395675 8.951834411732088 9.100252908187684 0 0 0
88 1 3.6655696064065912 11.108749929709177 2.07885498070793 0 0 0
85 1 2.9478555504829447 10.344478766392934 1.0986986633663605 0 0 0
20 1 3.3016855545318524 11.840672003928654 4.568097036399155 0 -1 0
94 1 5.556387956527927 11.881634887656546 5.329628848848815 0 0 0
97 1 5.842850310049696 10.435801867246017 5.306877447869531 0 0 0
87 1 3.360423558580142 10.943273320218909 3.4428157696005726 0 0 0
95 1 5.995269763758342 9.899449864933043 4.0318260495567575 0 0 0
93 1 5.607283076094537 9.752824534038133 6.478794679004873 0 0 0
100 1 5.188084778645748 10.559308002393264 7.606709074858874 0 0 0
101 1 5.318248928775771 9.711361452860464 8.776897957022264 0 0 0
106 1 4.79917769480826 11.824339792780563 8.247286957910767 0 0 0
33 1 3.476814332274492 12.02945209683425 8.929149675374367 0 -1 0
98 1 3.278918142218613 11.184429846933016 9.983478716511684 0 0 0
99 1 3.1417480681844885 9.752271325561832 9.783913899528033 0 0 0
103 1 3.194443585915297 11.85619425458822 11.288065308057726 0 0 0
2 1 6.034310610959065 1.020339377124033 2.817463778940768 0 0 0
114 1 8.803259019087935 1.7117177107591555 0.09122804293922897 0 0 0
15 1 6.7955598934129045 0.29765716164989464 5.14776172807063 0 0 0
19 1 6.5698807098529866 1.0259966635904514 3.96342252975281 0 0 0
121 1 8.107469674272203 -0.061933137254198224 5.67481639735384 0 0 0
129 1 8.25716958305112 0.23596639410523304 9.577933801217437 0 0 0
130 1 8.142775234690356 2.5833650185599075 11.450592180528677 0 0 0
137 1 6.917868202975863 0.7513710126535579 9.500443110602093 0 0 0
134 1 6.67689985346884 2.916362241106495 11.089755977932935 0 0 0
147 1 7.809532034392017 4.53391415971071 2.2441931764738134 0 0 0
139 1 8.941993392068307 5.265454783541764 1.886152147667087 0 0 0
141 1 6.609998281241224 4.6273791482583055 3.072393007927969 0 0 0
150 1 8.07331795223462 3.8572753814274874 4.8017522547565274 0 0 0
156 1 6.775088487651307 4.19566374856631 4.427804802435991 0 0 0
151 1 8.50662383031705 5.0968297635793345 7.034006290193651 0 0 0
166 1 7.474527564388586 4.394388090776841 7.658178365543577 0 0 0
23 1 6.21226629563432 4.003555124554735 6.961755686068333 0 0 0
167 1 7.529832612203565 3.9226106548669932 9.022546665844379 0 0 0
165 1 8.583455996025279 4.627811996947318 9.900354164366487 0 0 0
35 1 6.4677649307206035 3.0422100770866374 9.673013813051256 0 0 0
171 1 7.911556575133438 8.51692346214637 1.4939937893293382 0 0 0
140 1 7.747661545187255 7.894412183524781 0.18547970787528692 0 0 0
142 1 8.021292141291928 7.560591863691427 2.6302138152450616 0 0 0
145 1 7.505686847656139 6.555978258291137 0.23589758464595698 0 0 0
144 1 6.9536101751358 7.135107234646205 3.4455383242530893 0 0 0
148 1 6.972024340713948 7.022659344407721 4.816722263946365 0 0 0
154 1 8.174337491873482 6.9830351738093155 5.449711843826599 0 0 0
153 1 8.411336696881495 6.506707025444313 6.752887431804943 0 0 0
162 1 8.562910132103822 7.537698768900636 7.696343477778306 0 0 0
184 1 8.231378913069419 8.936060337716528 7.595584020003782 0 0 0
188 1 8.214382215611327 8.279013540756985 11.199947299133466 0 0 0
160 1 7.926743053156172 7.4438547889112145 9.936292381955662 0 0 0
74 1 6.4869340746830915 7.069051612956218 9.279287322518593 0 0 0
169 1 7.197344797681588 9.7420741184348 1.6793946960081456 0 0 0
91 1 6.0257483047580465 9.793226653365064 0.8491144175222178 0 0 0
174 1 8.139841725931825 10.99318118582983 3.2566400909514694 0 0 0
170 1 7.010841752597733 10.345924210248057 2.9976862274472267 0 0 0
177 1 8.552229107574068 9.666161388434935 6.385225573516525 0 0 0
178 1 8.5432809745654 11.144705209279131 6.526466908486838 0 0 0
180 1 7.689484629620266 9.808158840528822 8.729309357532605 0 0 0
181 1 8.349362904549498 11.158168058993583 8.926516021125476 0 0 0
104 1 6.462682354467378 9.472813992283736 9.49275501834936 0 0 0
110 1 6.100305723180598 9.09501691204917 10.787634409552336 0 0 0
86 1 6.151586778697289 10.041382083485178 11.767983488789673 0 0 -1
115 1 10.828451954658878 1.596818919828431 2.0132219247485046 0 0 0
112 1 9.783581363639735 1.524871897648036 0.9835719484044578 0 0 0
116 1 12.084678749915673 0.968338238262324 2.3755508211081033 0 0 0
111 1 10.274846280878025 2.0383980870397442 3.347545182698017 0 0 0
120 1 10.137509896937726 0.8740830386136995 4.291835543626484 0 0 0
126 1 11.159430624556872 -0.11337784709705406 4.260562798736088 0 0 0
123 1 9.101047937696928 0.804554291697588 5.169860521059563 0 0 0
127 1 10.261752782995906 0.2818426454068429 8.089419945608118 0 0 0
189 1 11.615795662838174 0.09875616779460472 7.527221625185621 0 1 0
135 1 10.001299477522215 2.574079040470665 9.897374367223005 0 0 0
131 1 9.495880019862378 1.0522421540731426 9.29901769873108 0 0 0
119 1 9.986558394159077 4.751601830857796 1.0427544648132436 0 0 0
117 1 11.172866987667316 4.472446402401559 1.784377028409032 0 0 0
146 1 10.988536468704785 4.564714954010541 3.2512637560862303 0 0 0
124 1 9.460811243267392 3.8621086720171687 4.920081011982864 0 0 0
128 1 10.187133477843911 3.466065390007897 3.708923958611542 0 0 0
157 1 11.109306171127422 5.932149484528314 4.01055451548303 0 0 0
122 1 11.83896609957436 3.8360036574372587 5.700256696751819 0 0 0
125 1 10.392251736560114 4.017813905885032 5.906359549195417 0 0 0
161 1 10.444021319327293 5.033114073408751 8.47663604830121 0 0 0
155 1 9.86294186484073 4.736462682345902 7.122358242463376 0 0 0
133 1 11.58361173744052 4.384845706311593 8.860780975920253 0 0 0
163 1 9.338330891194882 5.60620514677447 9.211119459805996 0 0 0
136 1 9.120634868194838 3.6370637902245373 10.826950141054441 0 0 0
113 1 9.930912695148916 4.360250211009563 11.993329009549155 0 0 -1
132 1 11.336224394645624 3.1071841820500676 9.68107753116871 0 0 0
168 1 11.547944393796438 7.336719783602893 0.5024046334689505 0 0 1
143 1 9.14391106160042 6.653940726797347 2.6056688740836385 0 0 0
149 1 9.266024112993708 7.624726964272442 4.8829927671821105 0 0 0
138 1 10.003362458976676 6.817791246779207 3.8641169930512693 0 0 0
175 1 9.337861525030446 9.06278441375007 5.264578566675804 0 0 0
152 1 11.15376373447523 7.171957960768756 6.331170250718577 0 0 0
159 1 9.166401386181699 7.1233777013820285 9.063232437291042 0 0 0
158 1 11.094446772723693 7.143363739594979 10.27153806758055 0 0 0
164 1 10.575622504574277 7.79419285277451 9.1991238166544 0 0 0
79 1 11.042465883381572 7.001293234793692 11.579297344078782 -1 0 0
172 1 10.035616479576413 9.915951458725191 4.366306128330181 0 0 0
173 1 11.070823377648095 10.846792707764413 4.862616446470719 0 0 0
179 1 9.314941373038303 10.475684041327066 3.3029562141904463 0 0 0
176 1 11.918918419964275 10.600695289512846 5.894162343911516 0 0 0
182 1 11.667806312707688 9.860836394994195 8.172870530149515 0 0 0
186 1 11.593431136619483 10.887622870075704 7.248983504148689 0 0 0
185 1 9.141339707510667 11.563577568075683 7.7313442373808305 0 0 0
187 1 10.406586922941962 9.833021405972357 10.458480932844367 0 0 0
190 1 11.254101546760102 11.010019875687853 10.79380526564069 0 0 0
183 1 10.752243172794346 9.241945333410989 9.162244694644501 0 0 0
191 1 9.27690774403577 9.262402155977579 11.040723544078297 0 0 0

Velocities

4 -5.496319405272339 -7.300293600565073 -6.812429912491687
12 6.718324479944523 10.227509643920765 -15.585502430938401
118 6.830515685953818 -2.042741695090483 -10.429890267049538
31 -0.007908992564940563 11.543105033868857 -13.06460897807165
32 3.2080955569315073 -1.085934014715746 10.240313896037003
11 -5.905975336962655 1.3534595709290216 -9.08694100458987
17 -10.941344749310435 -15.293839749028939 4.6415190004633775
13 19.18237245544419 -5.371889720717325 -1.2015088033783519
28 3.8515354502632437 -3.558350743017585 -5.523711404132206
29 8.698642382822783 -10.022907886034224 -0.8138511915437929
30 -1.4796217049389788 -3.052718507626224 -3.479998023687844
38 -3.8125976963027486 15.200079553559402 3.8362255584571185
36 -1.6242982560444421 6.925252744784017 -0.39451751561020365
7 -1.2019353578659633 0.6057955894965056 9.238302932220124
6 1.0690859600332574 -15.400537836242528 8.218277939199824
45 2.2150132203837427 1.650689605692194 1.2319279854826242
14 5.6632750198500075 -2.070634695507233 6.562762740307594
63 6.70262085471885 -14.282610224787415 -5.042742111383082
22 6.423894125139007 1.437652003276922 -6.131001196562917
34 0.11241598250269526 2.1497924562700623 -2.634662162661123
64 14.005907396120945 16.165268197875378 -2.3585747780794475
66 -5.603085162031161 -14.661326680513843 -1.6932134356050232
39 2.449165869652353 2.7193315745947406 2.3229147302968967
43 2.7755281656962407 -14.818724077158807 -6.1474432505739625
42 7.260956803000271 0.44897949560909334 4.813603767056824
41 -6.3356192958306 18.521922143680573 -4.006819501627621
54 -9.974739813105998 7.081700657731163 9.198300169139396
50 7.652291713697127 -0.15447759926867063 2.0601562532984667
52 -3.5292174273132813 0.8051463203591617 -2.7155511088731092
60 8.792102947220515 -2.891161439189984 5.9681601848071235
40 -2.106414820586867 -11.138195706151727 -1.7268734063180147
53 -2.2929545626893266 -10.60554196086945 -3.6316175545270575
59 7.134163850023549 7.317192575749707 5.973798515652068
67 4.857675509899521 0.9839370555064534 -4.127514012486205
71 -6.584664189573931 -3.605798297977322 -8.260790133857267
108 -7.417615979014306 22.247008306344878 16.85846660981394
77 -9.321132770767157 5.986156536729936 -14.635482252504943
76 -0.18247704075755478 2.125624110119947 0.27156444318784445
75 5.404433859979625 -5.9909655771998 7.212626768787674
107 4.990080605607215 2.155752201147075 8.272696060676534
89 -15.78973711325909 -4.947443482979678 -3.988820879990708
84 1.9281247400151258 25.145846531779554 -4.307575469636416
80 -0.6057427366881167 0.2909286225227569 -20.222897365629397
83 -3.293544964853925 5.910472127483117 -7.206351759089104
21 7.71806681056364 6.959185056946524 -1.6222878845913757
96 -18.202545041842104 -8.731112109238708 -1.7565182294220512
109 -2.179444550029134 -5.7393862864545335 -5.016069428373199
105 13.499870548993375 1.4965569612412446 8.260553247852135
3 -6.677094471276933 -10.238241964033339 -4.430840776590955
1 -1.5148369830531243 -6.669565777471371 12.91745193450622
5 -17.050299127044855 -2.3778862714103433 -21.06012512825212
16 5.201093433951107 -8.778248742351282 -8.800503644801319
10 7.007062663560989 11.368377443981435 -6.265761213032282
26 -7.541602795818714 0.46805819394986464 -7.359824844894093
24 1.216851866228755 8.277782990924287 9.252627252056143
9 -2.1111391507367827 13.040473184702753 3.1542920172614966
18 10.054866270781075 -18.676030362953814 -6.921721824210209
25 9.593656452078145 5.091376730522089 -7.264427123158111
48 1.8205516505097805 -5.649267251152835 -4.183407232945517
8 -7.393586746536962 -6.625733797638312 -4.055968466220252
46 -0.30216521586696815 8.71757800779382 -4.325253773298457
44 -14.268019253192836 2.8619486008214303 5.675575518650334
58 -6.638062787586792 -7.962758565219737 5.776402442258191
56 -18.879000635671463 -1.4321479993079138 -8.85724171284794
70 -8.602648321231152 -7.066670201641906 7.535884414569884
57 -5.712234197329311 5.30629494603641 22.79182163602378
51 7.968736536289637 -3.9162639113637923 -0.5007513085202844
78 -17.36100995704228 3.100476133367191 -11.281910615208611
68 3.974406662486064 6.770501379640955 -0.10616443536105119
69 -12.220937160718233 -19.793622426978636 7.596885254473412
37 -3.0664839591281066 -0.17735072572091526 11.75117235061758
27 -5.455345693110284 10.983100535399743 -3.4534165851069165
47 -2.5681139321781803 -1.5261587840116613 2.641709112977799
82 -5.504501659545331 1.1364071993220994 8.06750030788394
49 -7.803650873801014 9.566611336027055 -10.437024844027684
90 5.2608826829344935 -2.3503803515871406 10.36907799427205
55 -10.892852969300547 3.388884202050866 9.990955513494397
92 0.5498414144806345 -1.0953750732508407 6.735317514033358
73 -23.289694554254925 -2.075977673688157 -1.1037086148204232
62 18.760618447487268 10.738137399042895 5.775906763156227
61 4.947438671861649 -4.109116054621768 -8.061339462983893
65 1.6495780049969881 -8.917576631649307 -1.0204975578247626
72 -5.300598676483276 -5.461511143641049 4.94465241738754
81 10.946889984513772 5.291822199373641 -15.248668495866474
102 3.3903739430051796 -15.991060986837281 17.212457318148278
88 -9.230330355216301 10.041364562869505 0.4643802810545033
85 8.652297443824331 -12.801932302198097 2.169869190882451
20 -14.115935136946666 4.179399158588255 -7.107837425137285
94 -0.6265644473819697 7.720793679002773 -14.031666762209323
97 -6.532138859044649 10.249356764081236 -4.060235645991931
87 11.268772067508365 6.5354804651490355 -2.8708834771471476
95 3.4493874114832552 1.2831298645576696 -5.8436424668571645
93 8.928931073370356 9.887921682880245 -4.122890479410108
100 -11.7740865880494 1.8860346933443168 12.026511702677187
101 -13.396648581291169 -0.566111458860856 8.911761256558941
106 -9.876344695212007 -9.098768282454023 -2.325239630076816
33 6.361172705084194 13.530655155983357 -1.5518734219440853
98 13.70964670118147 7.3018809245793435 1.8920851308562194
99 -8.563817050112332 2.3959371031874466 1.6368264458113244
103 10.12220492117092 1.2025058839418519 1.0315104566131692
2 4.390626891101978 2.2797067598026266 4.518974922882756
114 5.586872368400799 -3.5952416125362614 -1.9321658128657868
15 -1.2134885939022804 2.0289916618977415 4.36270772731871
19 4.8934017878565275 -4.434657352182785 3.1399151647735986
121 5.799836676013365 2.9541044351214034 -19.143763724745583
129 0.37937720164958827 -10.514246348285289 10.001321746872538
130 -3.364248318745008 5.2003057521357645 -3.061424832147435
137 13.741123168535653 -5.3107436573313676 5.082236476069816
134 9.481571760581666 12.204809506887875 -5.309153172400165
147 7.0183088485756775 -5.744454246677344 -1.6695159232172458
139 -10.203174625078718 -0.04165780707462285 8.976414693237988
141 -2.5808133503157658 -2.067027483017738 4.345883030292685
150 -24.03596608128737 -4.872408940240124 2.0594756825806066
156 18.070954274195547 -4.969901071868175 1.9392938500002517
151 7.755834817986379 -10.128444878382307 -0.5579752308591629
166 -6.871646225645869 -2.5516084850357332 -9.658234919287068
23 -2.410366904147698 3.4258845225724324 -5.289635441672028
167 6.873717695963077 -0.3648681541028091 -4.591916520157107
165 -8.820788766504965 -7.312652353427562 4.480736074801219
35 7.428059928263503 8.24375051722851 4.20991290290447
171 -4.8136859709690665 -1.7977610492264269 5.603959756639265
140 5.371796925728092 -1.2050408947252416 -10.145664931890895
142 -0.48023347351597573 0.833894512598762 1.6043364108678881
145 -2.849306673540666 2.785222611219999 11.14671327256867
144 -10.630994966229572 5.957583754027331 -7.249010018135899
148 -6.477237523769097 4.660138981587737 11.711695052200925
154 1.863092008795026 5.626306016474503 9.634255322478573
153 7.6407218563570405 -5.338247967190837 6.255350743683071
162 -1.938187950266237 -2.2783101874134175 -1.3739310631941741
184 5.4244937846418875 1.9337695985109449 6.575891864214598
188 -11.702214437231072 9.511205823226398 18.351362989334984
160 -7.450215259177153 -1.4972234510399949 5.656006056690484
74 -18.320224099196484 -2.697938262794176 14.067018443861452
169 -4.261742327532752 10.319403282771653 -3.835856289971971
91 -4.509649746358022 -6.4672796842279485 -0.2944573361459932
174 8.120116784707854 8.593423971824006 23.42202311711366
170 -0.3141144869981911 10.663106226958858 -0.8723350767606626
177 2.32365056990897 6.4214972379411845 -6.938198528436266
178 5.181496548118831 -1.4907282372536033 -12.53583775489784
180 4.332104490004838 -13.430818795200507 12.101062346069229
181 2.226357659418517 -8.34408103426774 -2.4221828779842776
104 1.3525632783383068 3.118939821112458 -10.519425796069322
110 -3.0357908822345703 8.583901875249445 0.617278450763379
86 -6.886114417382895 7.513188441101494 13.899240322407499
115 12.328391841796584 1.1364940825099323 -12.356127508653634
112 19.246906715409246 11.178574368205647 10.035347456702274
116 -15.653404443796958 -5.269551334513087 -0.9693886492857752
111 0.6627072527299214 2.8846035469301006 -3.238052359159606
120 -1.3306858549148364 -6.7957673625941 -1.3773812245035728
126 -5.467633928734702 1.821287150925589 -2.8536136621909227
123 18.417420676384413 -13.199003568692543 0.6332511046600416
127 -4.4984108163880965 0.8248163070712272 -2.773696298146781
189 11.516215924123571 -6.969510432292974 6.280128375076972
135 7.747406900682362 -4.590666020275531 2.652744122861518
131 -2.6270974649168743 -15.271335070195786 11.229627703555758
119 -6.003299045440556 -4.72112364009299 1.2958545804932815
117 2.7708057201597796 -6.373230584727736 10.592601728897067
146 -12.29092912153431 1.1425182794055637 -5.525955758284108
124 9.088857353575943 -8.990431864001447 -9.476726256793869
128 11.664578737588874 6.864858459967697 -19.18599285753074
157 11.661636464862172 -11.396684443276596 6.3543746791420475
122 7.466039405814238 15.418465656170671 3.002749277768237
125 -1.2886738662455404 -1.9001284540791021 2.069689338971477
161 15.978053401339965 3.6207823598730347 -4.017715320492868
155 -4.34908087247542 0.32692885896320817 6.631913738449588
133 17.20161177970987 -2.9628055507931 2.8681582311759954
163 4.997536792666805 19.106817885665592 0.5781629862670259
136 0.7367890496500468 -0.34093301643354434 3.873563861412557
113 3.535312324408287 1.9524748865386583 -5.6604140758335095
132 6.9963354567784375 0.5103052064741698 -0.741910703449396
168 -3.1203752482588083 -23.40022446921797 -2.79615175385372
143 -5.864893350208284 -9.511548919840875 -4.877373372240298
149 -1.0415877340023156 2.5548862293779773 3.998436098242957
138 -7.484302961118994 0.14249206308285658 -1.7006916659711413
175 19.272699315745754 17.636013087944868 -7.542822699443427
152 5.941203726528259 -0.3762704794637659 1.3193996704429858
159 -2.958515639917072 5.255163178788083 -13.282381989668155
158 -5.731122887194564 -12.231166486772192 17.417132833264077
164 -2.5303963694934324 2.205412468897864 -1.8370296106964001
79 2.855803629201422 5.934346929587569 -2.916798484489356
172 -7.455136033941817 -2.761149856432201 -2.561453974909819
173 -2.041461377419436 -12.322580414826023 -1.4025722703369765
179 -5.316798894886465 9.290241988872939 -1.3595204677318933
176 -3.561807399959833 -9.899816083902055 0.9904362848695156
182 7.108320968392055 2.947947464466332 1.7424630068101494
186 6.436049185053551 -3.6946195699871316 -5.608190231490257
185 -4.544750763913781 -2.552808579053237 -7.837132525262886
187 -2.885699563354728 10.330335430156639 -7.4714677024232765
190 -4.531303067221915 -6.311086913031286 6.557826946275162
183 -4.969603381069539 -1.384379243625837 -7.906717424101302
191 -3.990325982783744 0.08497664353558282 5.564823044885671
