LAMMPS data file via write_data, version 8 Apr 2021, timestep = 6000

191 atoms
1 atom types

-0.1335043868548661 12.13350438685481 xlo xhi
-0.1335043868548661 12.13350438685481 ylo yhi
-0.1335043868548661 12.13350438685481 zlo zhi

Masses

1 12.0107

Atoms # atomic

4 1 1.9845694062284258 2.648324925875965 1.640853175251293 0 0 0
12 1 1.025805707504932 0.5364935143211367 4.957036255856118 0 0 0
118 1 -0.03331932418511972 0.6482743678340035 3.967137402783818 1 0 0
11 1 0.8447541000338333 0.5491748203849784 7.4924727492313155 0 0 0
32 1 1.555074453594069 0.7811728503979024 8.69150800642586 0 0 0
13 1 1.3654790029906725 1.0565379665080081 6.254889952739719 0 0 0
17 1 2.4681933109387035 1.9707213786038282 6.057691003193227 0 0 0
28 1 0.7360628239379648 0.8115071845273423 9.801443832377004 0 0 0
29 1 0.488875153742842 2.218903635852664 9.942392747909894 0 0 0
30 1 1.3902742288005452 2.6555510381910223 10.97213102141804 0 0 0
38 1 2.7721784069794606 1.958706894751245 11.111315182377709 0 0 0
7 1 0.38300884124695617 4.624204961089454 1.6704567276074536 0 0 0
6 1 1.0378827192833762 3.6448079246544807 0.8710247222243556 0 0 0
45 1 1.1745409756173144 5.55888403004801 2.330176284241956 0 0 0
14 1 2.161618627360611 3.339433184035922 5.820261553438057 0 0 0
22 1 0.6875438102206699 3.5648230146477173 5.919278548177247 0 0 0
63 1 0.7239204522165682 5.119136373208205 8.629623115730466 0 0 0
34 1 1.2614046488087642 3.8245901082145903 11.767606152477473 0 0 0
64 1 1.3191772854986716 5.118817480139564 11.086302460641006 0 0 0
66 1 1.6310907951582636 4.987648307304835 9.68603475990804 0 0 0
43 1 2.3446691516049496 8.290865442959845 0.5078647801526095 0 0 0
42 1 1.196094350034342 8.140847093826915 1.3704305181323475 0 0 0
41 1 1.086370358300417 7.916160175532995 2.778372100198517 0 0 0
39 1 -0.09571945416003545 8.30062682107095 0.5508366382545672 0 0 0
54 1 2.7411133538350683 6.889542541001191 4.918654587130278 0 0 0
50 1 1.8908860790214033 8.787310607849108 3.4952881617788285 0 0 0
52 1 1.1506255911030536 6.564926489558992 5.1348293914397045 0 0 0
53 1 0.11183883887509806 6.2773679957690325 4.203785563296409 0 0 0
40 1 0.6624595960604441 6.66535619829397 2.951751443702851 0 0 0
60 1 2.922939796641269 8.257268104110109 4.222184689148367 0 0 0
59 1 0.676003319588499 6.67372430347959 6.429025995608358 0 0 0
67 1 1.9063537383507196 7.183229032687178 8.358196538558081 0 0 0
108 1 1.337323736022563 8.407940731502743 8.586611645512782 0 0 0
109 1 0.3633791730585179 8.83377177657201 7.7460524725048145 0 0 0
71 1 1.0428785532509355 6.128837286524248 7.6446734843205 0 0 0
152 1 0.11399173937370159 7.94339408830762 6.725249607451019 1 0 0
77 1 1.5604612521773324 6.441340072956101 11.52211605857036 0 0 0
76 1 1.8212890462902607 7.7664295090350235 11.522028861474949 0 0 0
75 1 1.0820851535614695 8.95350495052267 10.923559454071617 0 0 0
89 1 0.4864750121330594 10.547378653442866 0.6567950858453588 0 0 0
84 1 1.0278127342244223 10.473918686287844 1.8409436491551294 0 0 0
83 1 1.9385156082675412 10.051584434918471 2.7489547798987055 0 0 0
96 1 0.9185116397183201 10.454188446617081 5.468179957573742 0 0 0
21 1 1.6930693020810368 11.518759268567047 4.795661329530104 0 -1 0
80 1 0.2775554403272725 9.4785516757169 12.06772792673813 0 0 0
107 1 1.747404109383408 9.239451366169499 9.690368111578312 0 0 0
105 1 0.0019493728636139826 12.117583998178418 10.477665708256007 0 0 0
3 1 4.640398596017255 0.29439681728100253 1.800143139887308 0 0 0
1 1 3.9606430340759538 1.3575740231790268 1.118231688204766 0 0 0
2 1 5.902838492603719 0.39991742122653884 2.5435451876655173 0 0 0
5 1 3.381014010814613 2.483916604145944 1.8423878118811965 0 0 0
16 1 4.018661220876694 0.0871922047327713 5.086040982249116 0 0 0
10 1 4.832455133752135 2.1374045858909256 6.634076367672601 0 0 0
31 1 3.0332120231188933 1.0006889874824467 8.830666816464925 0 0 0
18 1 3.8236934291064353 1.372047676839557 6.080751570544432 0 0 0
26 1 5.96812336912972 0.34843597797445747 8.702627280395548 0 0 0
25 1 3.4397511999965973 2.056471754835739 9.785466343685867 0 0 0
36 1 3.2531533378657125 0.8679671794500586 12.022283119077578 0 0 0
48 1 4.156410611419155 4.923376639212429 0.822139945908928 0 0 0
8 1 3.952209929671308 3.4171122514670973 2.7662797089795244 0 0 0
46 1 4.362243609003533 4.669069683953253 2.1819569429271177 0 0 0
51 1 3.5864752124008086 5.787673520849794 5.3640529157494035 0 0 0
56 1 4.982359794457388 5.91547335616438 5.741700576664509 0 0 0
44 1 5.337523938643591 5.474992075603422 2.964360726039687 0 0 0
57 1 3.078558488664371 4.3989831901297825 5.552530265908831 0 0 0
24 1 5.548462419427014 3.0096843034842027 8.839151821562751 0 0 0
9 1 5.652274758450094 3.022039291883433 7.402010201772727 0 0 0
78 1 4.9374227914323745 4.5389697583962105 11.972728476938608 0 0 0
68 1 3.9592287204931154 4.5820722248733965 9.814032465367491 0 0 0
69 1 4.846506076743676 5.215425407841861 10.775184392129091 0 0 0
70 1 3.017363772283702 5.349473214358471 9.215752748709274 0 0 0
27 1 4.248322500313916 3.1552769169324413 9.41744590515905 0 0 0
37 1 5.937677222682608 3.450436122357553 11.975595458320308 0 0 0
47 1 4.747555477206575 7.999961489002209 2.6129190657475214 0 0 0
82 1 4.492580083692292 8.626077114206609 1.3610804635534184 0 0 0
92 1 4.24579562890332 8.717988083514127 3.8323911772801815 0 0 0
55 1 5.72739405603174 7.092064313382304 5.928469705471304 0 0 0
49 1 5.594111032974245 6.956899650360522 3.002661936016451 0 0 0
61 1 5.695572204379405 8.001671063174324 7.077592409534537 0 0 0
62 1 5.588394414228168 7.382396685968756 8.447719900523824 0 0 0
73 1 4.24579344381251 7.60507467079749 9.027827080334193 0 0 0
65 1 3.1943029080888636 6.714476922402315 8.77988727718969 0 0 0
102 1 4.243855389158299 8.872297391740634 9.802815193467987 0 0 0
72 1 5.931238741972712 6.064786591640105 10.494234263885179 0 0 0
88 1 3.843225623215433 11.312346708328175 1.8145402188587767 0 0 0
85 1 3.397242103381748 10.62192280450891 0.5263074886539407 0 0 0
91 1 5.693214818957971 9.327332785665712 0.9575812556852139 0 0 0
90 1 3.295511863994184 9.166884240996385 0.7411054188119804 0 0 0
97 1 5.5077816069345875 10.207686796159457 5.526418798624809 0 0 0
94 1 5.3699861525925785 11.656592245327543 5.292928708667288 0 0 0
95 1 5.434553018936699 9.501622840081472 4.262084884343712 0 0 0
87 1 2.9755283037053113 11.071695564652307 3.0403983649962636 0 0 0
20 1 2.9827764445084477 11.715268515891326 4.3218361017827895 0 -1 0
93 1 5.440592095795014 9.631520360934084 6.858841639797176 0 0 0
100 1 5.190970787364129 10.373722002707567 8.027057887375191 0 0 0
106 1 4.9369246238109135 11.76437054712429 8.355255528075931 0 0 0
101 1 5.486905358722875 9.593612779722264 9.240381559929283 0 0 0
103 1 3.297554343821195 11.646375513344296 11.616940589101443 0 0 0
98 1 3.383087907128257 11.18861963363123 10.21112201456069 0 0 0
99 1 3.1028263370654208 9.774946024480407 9.92667441530424 0 0 0
33 1 3.8113056406155956 12.008775016556225 9.121903793035637 0 -1 0
86 1 5.91124321245236 9.665132528500534 11.803381778003388 0 0 -1
121 1 7.921845095027605 0.019869730989226574 5.541250943440523 0 0 0
123 1 8.740893275820858 0.992317772777823 5.074048169091383 0 0 0
15 1 6.6705667053577 0.11645383385400838 4.912596491361567 0 0 0
19 1 6.903576893890489 0.10824457776281575 3.5340746473166753 0 0 0
129 1 8.488947984296349 0.38354676651696884 9.253685384187198 0 0 0
137 1 7.145061039807709 0.5154291420017278 9.280728781991632 0 0 0
147 1 7.541201174688202 4.658162056413612 2.289403704908098 0 0 0
139 1 9.01219561337957 5.25213146649309 2.0239621837330013 0 0 0
156 1 6.846649214737703 4.347767836124274 4.606485295837181 0 0 0
150 1 8.161684827646042 3.9111290529538416 4.917723445002917 0 0 0
141 1 6.5259208057925 4.730436794136543 3.315708232812459 0 0 0
58 1 6.00843644026291 4.6039101600794305 5.672715176258108 0 0 0
151 1 8.559881192318894 5.320565764766242 7.298621462242778 0 0 0
166 1 7.442950612131398 4.572697693099078 7.755523099889954 0 0 0
23 1 6.439879562703715 4.037937925225588 6.897388706061042 0 0 0
35 1 6.683709362107386 3.341754470724071 9.730825075118705 0 0 0
130 1 8.413098597815587 2.954866991212 11.509397125222751 0 0 0
167 1 7.670285087013632 4.216798772722502 9.164275613391657 0 0 0
165 1 8.70825270845619 4.679006042392641 10.049345846417738 0 0 0
134 1 7.011755738996118 3.0310252903381802 11.146484188361518 0 0 0
136 1 9.048520404769159 4.232670885311775 11.329634746476058 0 0 0
171 1 7.80505900180043 8.554616919283953 1.7033509891990644 0 0 0
140 1 7.990418017394085 8.308962024185126 0.2228502212614885 0 0 0
142 1 8.03426245729435 7.492630679393737 2.747962419971061 0 0 0
144 1 6.884726756685712 7.258126136216236 3.6013449568288323 0 0 0
148 1 6.980720010861421 7.034206561088155 5.017780265364184 0 0 0
154 1 8.238335142198515 7.03549998589851 5.649562994525382 0 0 0
153 1 8.494225454348825 6.752319577968514 6.949549308309366 0 0 0
162 1 8.708802047621136 7.949560172520675 7.73732590275678 0 0 0
74 1 6.316917681034526 7.016587182027497 9.598111209916661 0 0 0
160 1 7.771914820848009 7.340275264078289 9.66284796485394 0 0 0
81 1 6.928344778113377 6.000884633165831 11.55750256844147 0 0 0
145 1 7.580043326521675 7.034903938922989 12.082022924740354 0 0 -1
159 1 8.978013881930739 7.826095082217216 9.135555875137706 0 0 0
169 1 6.709040463707001 9.336814202621476 1.991349849918606 0 0 0
179 1 9.034398646165501 10.85532019140407 3.3622993772006127 0 0 0
174 1 7.553655549423023 11.063432631077116 3.2888971311493056 0 0 0
170 1 6.546650982388997 9.864699675994533 3.2606222023667195 0 0 0
184 1 8.233782387260813 9.150685447433531 7.3273882359717595 0 0 0
181 1 8.669268810851696 11.339978002665093 8.574663770122845 0 0 0
180 1 7.88885362072685 10.030979251009484 8.545991814397576 0 0 0
178 1 8.598326494453683 11.223162472159006 6.187795620308123 0 0 0
177 1 8.48800857431631 9.712665184297855 6.058034025451236 0 0 0
104 1 6.843557755103961 9.934950840055796 9.642875417673137 0 0 0
110 1 6.989048343748304 9.803374403544003 10.947914651305657 0 0 0
188 1 8.199880651289014 9.364065095316999 11.540852348149164 0 0 0
115 1 10.868795980592234 1.691469417606088 2.076415905353279 0 0 0
112 1 10.18416210967738 1.9088960027803896 0.7710758474263533 0 0 0
114 1 9.11584919486314 1.9144384991500007 0.013173778367626086 0 0 0
116 1 12.074627340381712 1.04658206288804 2.5486152062469154 0 0 0
111 1 10.051950379265973 2.0525522862885945 3.3038406452829414 0 0 0
126 1 10.969629007911518 0.019917565460578792 4.36185227996414 0 0 0
120 1 9.898752984649189 0.992847215093602 4.2512980590872 0 0 0
127 1 10.34855647326984 0.3096915042064926 7.878653412940185 0 0 0
189 1 11.687536501215618 -0.05961521833550467 7.621811169478328 0 1 0
131 1 9.704968890276376 1.0985875447840543 8.869522627841707 0 0 0
135 1 10.471147801938034 2.2181659042024773 9.201632891228922 0 0 0
132 1 11.697163254417669 2.854093004614092 9.176482108635101 0 0 0
119 1 10.08119154438952 4.906357130856129 1.2334995084349265 0 0 0
117 1 11.217268614790857 4.665557728472932 1.9397903708353053 0 0 0
128 1 10.046896552468834 3.4007842742108774 3.741172978648845 0 0 0
124 1 9.4240096426354 3.469126208292365 5.039555790494027 0 0 0
146 1 10.901355580433155 4.555005057226087 3.39410983082695 0 0 0
157 1 11.050534381737759 5.798015019848636 4.037673039329541 0 0 0
161 1 10.502235727215934 4.8909449937689935 8.486703325508676 0 0 0
155 1 9.8375878329223 4.683170375174952 7.313360596520183 0 0 0
133 1 11.809342106793263 4.2061649020402205 8.692286143175343 0 0 0
125 1 10.19625147057058 3.8720965261062834 6.140518139587364 0 0 0
122 1 11.60985011306854 3.532117749718935 6.1769875039566084 0 0 0
163 1 9.71105521565942 5.506499490072053 9.43949101253089 0 0 0
113 1 9.978524161139367 5.075527526796825 12.124694132577632 0 0 -1
168 1 11.365261435976242 7.103444041955626 0.21094376866919382 0 0 1
143 1 9.127328274717215 6.567393022096195 2.6805554510850067 0 0 0
138 1 9.925506327486767 6.776733029001456 3.8796383100228495 0 0 0
149 1 9.385981086997683 7.641807963437532 4.933477868875019 0 0 0
158 1 10.484607911473708 6.56199288034784 10.232152929729487 0 0 0
164 1 10.383520736639772 7.840255942471211 9.61755459010104 0 0 0
79 1 10.667366740708392 6.273349560186988 11.595523315238909 -1 0 0
172 1 9.880877240351813 10.106102901619224 4.235407335189332 0 0 0
173 1 10.81777974798009 10.920595247528238 4.866118590234141 0 0 0
176 1 11.87580038332332 10.593562007477303 5.810243248128917 0 0 0
175 1 9.428631044130888 9.128661512509618 5.18357814735035 0 0 0
182 1 11.545615412171513 9.625754725815659 8.110733648475035 0 0 0
186 1 11.577808742604057 10.78257679772667 7.2330073739790155 0 0 0
185 1 9.367510824762931 11.638254093616803 7.361353989100469 0 0 0
187 1 10.574581599314817 10.165806363451669 10.430969850179629 0 0 0
190 1 11.225519870881271 11.350434236742219 10.63766881113392 0 0 0
191 1 9.417269013672204 9.90886500853679 11.179364781655138 0 0 0
183 1 10.794452999860477 9.252693553588216 9.34625919447997 0 0 0

Velocities

4 -4.945608358165871 1.4432986663314518 4.1960310237101535
12 -5.969509171410114 5.369596908377667 -8.996185210565038
118 6.721364862782431 9.939849963648886 1.6790651950321986
11 2.0562572451314556 -8.07514080440294 0.8500763045114662
32 -7.987803446787739 -18.17382263924219 -13.647393801391978
13 6.173205621359975 -3.518329004209437 -13.770226050602025
17 -17.506994977355127 -5.0490893360060145 -3.430062547529931
28 -17.55285772838609 14.378672833138404 15.776475422558262
29 -3.308730247350257 -5.364624539237667 2.399164643882129
30 6.270202520226721 0.01705144053841129 7.52124874922996
38 4.898828057423304 5.134113974655668 3.670385164539646
7 4.39517956339401 -15.08851061660451 2.246776521098333
6 5.927991742021272 8.561624636271262 15.30617905612359
45 -9.565455152511523 -5.770966616119351 -6.652797588788464
14 9.023782715799424 4.874067500397846 -3.9400349789765774
22 3.377459656444976 7.690483314970444 -11.68811650219436
63 2.3038935638627707 -2.2163338884059525 7.328526655609767
34 9.840911393239967 -9.598530619846565 -3.1298445457129427
64 2.5073416792262493 -13.232091514942237 3.562869811601492
66 -6.235698447403525 0.13339647215227282 2.194249210329614
43 -13.684620415063243 -8.175764762479426 6.111873338672284
42 11.955751265095216 -12.09948084580658 8.706346739126722
41 3.10724309879871 -0.8155892984498819 -6.309853529574548
39 -18.708414099074886 -0.8135556455911718 4.556134079407408
54 -6.812314043547747 1.589854006736094 -14.27585182656071
50 -14.861563158990045 26.52370188838795 -7.87142908411179
52 2.0139974463070534 10.44408899103081 -0.8684823151817784
53 -5.037709469572757 -0.21629161792667986 -12.66860109744343
40 10.919852223951251 -3.6090408883457523 -13.042350403965346
60 9.75707007061124 -15.337383506219636 0.8985817473072217
59 -0.19621477636816312 -4.0556780219812145 9.397876373380859
67 11.887879838424938 -14.051589310689257 -19.934678766320044
108 8.739552224607946 8.564263907170877 8.782198751137374
109 -5.858831133164299 7.139370375709605 2.7266051691299236
71 -2.8743441149198223 3.9599819590086214 -10.091464148884903
152 5.879786366667982 4.190139089093175 -11.101836457551503
77 -7.307087304696342 -6.329106873054931 -8.412654127577374
76 -1.1909613499121399 -11.55619604793287 1.7123018429898038
75 -10.899055995689663 3.4414701609869747 -10.026953524065767
89 -2.4992694609353907 6.002636130814864 1.1024071991180233
84 6.4873532645719765 14.499042250727987 2.358367280890513
83 -8.37789571301705 17.038037527897266 -29.1667061466452
96 6.687856993749224 2.9664187980871346 9.61059543901579
21 5.86690802872231 -0.6961872239766551 -3.6066457386092283
80 0.04103247589239735 -6.273807872605229 -1.6238469894672882
107 10.925714238156186 9.611482113079173 -3.176220826404296
105 -13.935587257581474 7.2181704588644635 3.640477650413835
3 3.7365148648197697 -8.654500505663123 5.813235312016611
1 8.170240711566835 4.949748323781448 -0.0617177782336856
2 9.885035342105164 -16.29597924472896 -2.0712271515739014
5 12.776447274864339 2.5134046826341985 6.291047668681795
16 -14.180893354598558 8.454471426439328 7.0273825295533685
10 0.602338648980381 13.578204634560128 -9.994872823223789
31 -0.7514535612207414 13.83827370725777 2.7937992249641566
18 -2.771955077802661 4.9240443434841685 -13.887379493383914
26 -8.110097320984375 -11.980992374782168 6.0370534199411985
25 -1.8986095097787925 -5.752101733481784 -3.9720945830759042
36 1.1518849911788793 -2.271923436488684 -0.9965981138507939
48 5.699375935561416 2.1168476636747746 -11.332638728713626
8 9.06764250980786 14.854457651873236 -3.4329471879787445
46 15.269647877222853 -4.511984390601933 1.059516498314843
51 3.26180734303659 -14.077233957299391 10.795598302916645
56 -15.568334301695463 5.803342594059624 -9.25244164760869
44 -8.121287982655184 -2.7612512931456674 0.6292453155861255
57 12.876506463984454 -1.319795192701396 -10.795376798869027
24 -14.446147112387491 1.9409879012991313 9.679363607596926
9 -0.6838602492120267 5.567148476118207 0.308653501647498
78 -0.7381176646528046 3.8765565722145823 -12.089529999499497
68 4.757282142488609 20.261762733693505 7.705343503323417
69 9.042553854158683 2.215197871912649 -5.973614684625209
70 12.323050881805711 9.174334876218335 -7.82973653797886
27 0.10562422587610694 0.662066717974563 10.724947309062197
37 -0.5168414137765939 6.168961519854679 2.6000740441298738
47 -0.8962498438759817 1.2078729533985384 3.8080350730607293
82 1.9548606749301751 -2.502086687996731 7.776830099187535
92 -5.033152693380419 -5.137530696617797 -1.375229218747309
55 0.776245755889516 1.5635181880019735 5.941100720921881
49 -4.976303648737199 6.672565849104448 -17.776762991782636
61 2.040293208584011 -1.2576214317533345 -3.312652684511629
62 0.2826630840447505 -13.904047777332133 19.706683590132823
73 4.26497839343276 4.467628048555063 -6.391110299358543
65 -15.944903815652538 -11.805549389516747 12.225873914857614
102 -7.960555344186401 -8.847665678713104 -1.7378154711561709
72 7.045669735414361 2.4930166574047115 -2.1956119569342363
88 -14.47489498435646 -12.888387597979381 -6.989579943430098
85 -11.212769988654545 -13.823184746119725 2.921395473601007
91 6.003246742908973 -16.039695186686544 -3.8912575786270343
90 0.2764377395904732 16.742960538305564 1.876263398628993
97 -2.8737439618747955 9.953807949012257 6.856532322866677
94 10.055217831953291 -1.3251285637614378 6.256789322935001
95 2.785614399041764 5.121711425011484 0.952321953213072
87 15.139709097633753 -6.328704851492639 5.8869286587635905
20 1.6713758992494276 9.250734986084566 -7.615562602284585
93 -7.289416456916501 8.417048311239157 -9.39685205532801
100 -5.825331047063781 10.383694806113539 1.2960258997656262
106 -4.726930527187505 9.136155376254578 -14.89270404436417
101 -10.689706458396063 7.036834179064739 -0.9292549104357626
103 17.471665737014856 -8.456525603524943 -5.357395261672759
98 -1.235222756319159 -3.2337902066820954 -7.0689961387921585
99 -4.38337921340237 3.5488572282051236 -6.542168239828407
33 5.689992225876606 9.442702377778181 -6.994249248212674
86 7.485310583506965 2.5604435290019945 -12.007026927177892
121 25.541608335504076 3.767431207919817 12.422317277544796
123 -3.127465861653456 2.564291389586455 8.338618086378254
15 -7.229137043563837 -6.816788028017513 2.9993966565767423
19 -5.411481367890343 7.740563743250935 7.144435761268399
129 -15.737175853158455 0.259169586877323 12.931789511813161
137 -1.8590589586772672 -25.834713292019487 -1.7095851357137144
147 19.025399132841738 20.66254280217307 8.174994896051658
139 9.048116205216196 -5.948178466134974 7.494319848390921
156 -6.132725822914959 -1.1328428841109999 10.246886729040055
150 -3.6768495196646924 8.54913657256157 -5.866569857937082
141 -0.8886956128727955 7.015829368448268 3.1288416102236605
58 1.6099634673694327 -24.14083736401308 4.311501981432313
151 -2.634198459814597 -12.012515704523931 4.356343461535233
166 -16.069538345368397 -9.57858201100389 -15.195634874214159
23 8.63473387519222 -2.224744194008788 -5.399725900824733
35 -6.953138932995985 -2.730553797368776 2.5373710990469776
130 12.373295264276004 2.6121333588520117 -12.424609338424156
167 -15.14518689118253 2.8674200631302127 -2.29559815184035
165 -13.999621082508789 12.081756773813858 -2.2711165519631797
134 5.946946553699327 -8.642122949671244 -0.877109061269426
136 -2.268625607816306 6.314655538319548 3.248633757158886
171 -7.968233816200388 -0.6084613458399947 -2.351402442174195
140 7.114109267645988 8.522471467202497 2.9984079824381946
142 -2.9720274723148004 1.2120298509873044 16.10177737153234
144 4.406061118585037 -0.21961408680394742 1.3802738786548774
148 -6.357346744071195 -3.0568891803465172 -10.248220819986399
154 11.499604386124068 0.35329971990092335 2.747809595095377
153 3.5326340968865213 -3.2732555536714987 10.777705324007336
162 9.63086939519965 5.277766706667464 3.4094324883209177
74 9.666672987348075 -14.114975241472015 0.9519004082393625
160 -8.889732575914202 -12.535247538287745 2.6066426518137775
81 8.741921232904627 -10.403602159231479 5.753119404314601
145 -0.6537643041791026 8.627806721521665 -9.382497751739045
159 8.204046644383457 -0.2863340285387961 2.775431912582936
169 -4.416748941012875 2.6340564136922504 0.6008150600472775
179 7.457308463783844 12.196887135086898 -5.210136474633457
174 0.5829343701556376 4.3657619180277125 -15.187704770890184
170 4.821351656961016 12.522427435075045 -2.245779158789641
184 -15.610413165041674 -10.812421494645907 1.8049086040984006
181 2.648046797037952 2.476991133384381 0.43419413964098896
180 -3.638888858517314 16.747322348183868 3.414229414664779
178 7.2644146075742935 -7.342384406972345 -5.70912378960888
177 -10.80626175187265 5.181259670209394 7.463051482457895
104 -2.1666991839214975 -7.169186105617792 -4.927735692530478
110 10.089229319079609 8.48403081294784 14.588180838447435
188 -14.788823029717827 3.6441155901576887 2.4146840609646425
115 -2.2632769838690523 -3.4004693299372653 -7.6756169105194125
112 2.5499629911225887 -2.0309900199498783 14.684410043527068
114 -1.858675592835841 7.299585054151207 4.381391737404833
116 0.038433621060119535 6.570599511525791 -14.88346924220471
111 -15.823885816762653 2.367162347079627 10.10239288648499
126 -2.250558432025053 1.9228533541217963 -10.459058044262823
120 5.622619895823739 3.8544021267926523 4.165055931863296
127 -8.839153914831519 -5.9460023900674495 9.996257533431866
189 -1.4127005810671567 4.198338032166742 -10.73143891515119
131 2.043002333468826 3.0651346781896316 8.80426583307334
135 10.856366962107854 0.9146989867309901 4.136263838156365
132 -1.1992606927826146 2.490354386425072 -3.8789133464734578
119 1.5605417821137906 3.6437383773003034 18.038221923360197
117 -6.451880877856768 -9.233389509885614 -6.945460207226545
128 -8.629607286724697 13.790814124105426 -7.492560106850419
124 0.3618333362055001 -23.173301964618304 3.385566793267336
146 1.5902954982276063 10.562188128594457 -4.419480709181627
157 -4.168856112079477 7.159361481210812 8.88013623853066
161 4.42777237024397 1.236546694690098 -4.092329408875532
155 17.8915409861338 -7.128409011886326 -1.7674463795865178
133 6.541959865321152 -0.8452662984280445 -1.6705861362039685
125 -10.562170254194823 5.058741868911213 -10.17578441017404
122 -4.319777649737093 -5.933989349977276 10.445706733122941
163 15.468404539698012 3.1593517658821693 -5.186926907935669
113 -6.488680723661947 -11.673309488714017 15.57932895188376
168 7.191869663783217 -11.400244980742965 9.887314056842444
143 7.076355573492312 -4.998355109042297 -13.245022970109865
138 -2.198746963062622 1.6253002688633786 0.1771102259469556
149 -3.8557290268653204 -5.91270490344671 26.275329994775895
158 -6.896509440039339 -1.3861914853563368 -0.9165785311336722
164 4.010229359697822 -6.205587740933644 13.709535758017942
79 0.2797613166103201 -1.7260519955500133 5.5015787941084335
172 8.820968307708164 4.9939638127474115 -1.242763631950386
173 0.9205335502532133 -10.010954005110001 0.8513082571272986
176 18.28324761474281 -2.1572815864082333 2.4161103164313236
175 -0.8769514347511056 2.736714724294336 -1.0722478710350658
182 -4.231098084871341 -2.7033895804812444 -3.5977291643120295
186 -12.814260355618652 -4.466383404501251 8.62591812023511
185 -1.560970339661711 -0.5930053256715148 -4.70649274361793
187 1.5856824170749935 -18.618449873929713 -2.527542385954496
190 -2.640526991350689 -13.454888196429907 5.028853469691828
191 -9.554100153291998 8.583704608321446 13.206393002363937
183 4.529601525800866 -6.369231703230344 2.4453193367691646
