ITEM: TIMESTEP
1000
ITEM: NUMBER OF ATOMS
191
ITEM: BOX BOUNDS pp pp pp
0.0000000000000000e+00 1.2000000000000000e+01
0.0000000000000000e+00 1.2000000000000000e+01
0.0000000000000000e+00 1.2000000000000000e+01
ITEM: ATOMS id type x y z
12 1 1.20509 0.848646 4.8824
1 1 2.45416 2.21262 3.44646
118 1 0.0568909 0.931156 4.21542
31 1 2.7963 1.20012 8.59879
32 1 1.33362 1.11411 8.47168
11 1 0.524598 1.20419 7.34151
17 1 2.71238 2.40746 6.16634
13 1 1.38231 1.67759 6.10224
28 1 0.600435 1.06936 9.68613
29 1 0.380463 2.49177 10.0643
30 1 1.54051 2.88833 10.6729
38 1 2.76966 2.1392 10.5977
4 1 2.18611 3.42645 1.49308
6 1 1.37529 4.1638 0.681185
7 1 0.316389 4.7799 1.23673
5 1 2.72351 3.38718 2.80547
53 1 0.358511 5.83537 4.1516
14 1 2.48962 3.77126 6.47623
22 1 1.04066 4.12647 6.92577
63 1 0.861504 4.89394 8.19573
34 1 1.60511 4.1806 11.3394
64 1 1.84804 5.17285 10.4568
66 1 1.97643 4.87993 9.13738
39 1 0.181589 8.50532 0.712513
43 1 2.65505 8.15867 0.868042
42 1 1.41328 7.99508 1.5577
45 1 0.410238 6.0196 1.6437
40 1 0.607622 6.50916 2.98891
41 1 1.37971 7.70322 2.91852
54 1 2.3679 6.52629 5.21292
50 1 2.14686 8.46843 3.69532
52 1 1.04645 6.21113 5.25484
60 1 2.43505 7.90596 4.88676
59 1 0.319578 6.54721 6.41356
67 1 1.82448 7.31926 8.10585
71 1 0.824954 6.39916 7.65354
108 1 1.50378 8.72625 8.5489
75 1 1.63839 8.73584 10.9
76 1 2.39605 7.75422 11.4558
77 1 2.36185 6.3648 11.1126
89 1 1.68557 10.4378 0.778156
84 1 1.26087 10.293 2.26055
96 1 1.39937 10.5244 5.80047
21 1 1.92503 11.6793 5.0829
83 1 1.97272 9.86486 3.45811
109 1 0.460584 9.13924 7.92927
107 1 1.96788 9.23301 9.68906
80 1 0.964113 9.47731 11.8748
3 1 3.46182 1.23958 3.5408
16 1 4.12741 0.164967 5.50129
2 1 4.94593 1.47411 3.18049
9 1 5.79569 2.82726 7.153
24 1 5.70492 2.43076 8.65892
26 1 5.83625 0.933983 8.58776
10 1 5.33926 2.06308 6.16372
18 1 3.95423 1.52412 6.0336
25 1 3.47206 2.22466 9.36298
36 1 3.1563 1.05003 11.3995
48 1 4.33373 4.65548 0.709691
44 1 5.99016 5.22315 2.44868
46 1 4.83482 4.57961 2.03733
8 1 3.91788 4.06314 2.96916
58 1 5.89245 4.77236 5.62939
56 1 5.05263 5.94244 5.47293
51 1 3.61934 5.79543 5.77172
70 1 3.40603 5.25056 8.37877
57 1 3.29911 4.88631 6.83742
78 1 5.12797 4.29346 11.5245
68 1 4.40579 4.42649 9.42396
69 1 5.059 5.21573 10.3426
27 1 4.47806 3.0505 9.22505
47 1 5.19546 7.94796 2.43487
82 1 4.90455 8.78538 1.39948
92 1 5.0144 8.61295 3.70179
55 1 5.95341 7.18716 5.53858
73 1 4.19161 7.74413 8.55678
62 1 5.53684 7.49362 7.95057
65 1 3.19209 6.8109 8.4114
61 1 5.63671 8.06901 6.60218
72 1 5.55993 6.5066 10.3029
81 1 5.54413 7.76087 11.0694
88 1 3.49987 11.0428 2.1632
85 1 3.16455 10.4098 1.00517
91 1 5.91697 9.71594 1.04399
90 1 3.67653 9.11918 1.0001
94 1 5.51007 11.7138 5.47563
97 1 5.54044 10.2859 5.25334
87 1 3.11333 10.7168 3.43176
20 1 3.18504 11.8843 4.2963
95 1 5.89847 9.73487 4.04418
93 1 5.64775 9.60237 6.45837
100 1 5.39615 10.4731 7.59658
101 1 5.51693 9.71445 8.84227
106 1 4.93343 11.8978 7.96221
33 1 3.59975 11.9983 8.55921
98 1 3.50555 11.1841 9.68144
103 1 3.22428 11.7935 10.9441
99 1 3.27887 9.79207 9.59418
102 1 4.32834 9.07969 9.01661
114 1 8.60925 1.0636 0.341457
15 1 6.28686 1.03729 5.36838
19 1 6.14573 1.31933 3.9212
121 1 7.76238 0.614062 5.91285
128 1 8.88866 2.97665 3.70562
129 1 8.35478 0.18746 9.37563
130 1 8.26103 2.13424 11.4211
137 1 7.02759 0.504277 9.32774
134 1 6.96563 2.54662 10.8961
35 1 6.87822 2.8466 9.43909
147 1 8.12484 3.78741 2.81579
139 1 8.95702 4.71955 2.11283
141 1 6.86754 4.534 3.29409
150 1 8.14886 4.52859 5.47536
156 1 6.87198 4.6036 4.71775
151 1 8.27125 5.07366 6.80782
166 1 7.22697 4.60737 7.64401
23 1 6.11789 4.13615 6.99852
167 1 7.57641 4.01855 8.90824
165 1 8.33637 4.89564 9.7276
37 1 6.09022 3.28999 11.648
49 1 6.32647 6.66491 2.15676
140 1 7.99375 7.68454 0.383597
142 1 8.58072 7.38481 2.5869
145 1 6.96274 6.67636 0.681379
171 1 8.11027 8.45739 1.63405
144 1 7.31434 7.04926 3.2988
148 1 7.18411 7.1601 4.73754
154 1 8.35935 7.1502 5.53352
153 1 8.1698 6.55922 6.73473
162 1 8.58165 7.49694 7.74916
184 1 8.14193 8.93666 7.51019
188 1 7.99517 8.26872 11.0671
74 1 6.48352 6.90777 9.14608
160 1 7.81743 7.2395 9.89896
169 1 7.09657 9.53003 1.87342
174 1 7.97704 10.9841 3.56656
170 1 6.93637 10.1165 3.21665
177 1 8.34338 9.55504 6.12299
178 1 8.10362 11.1346 6.34415
180 1 7.89147 9.70405 8.60484
181 1 8.60636 10.9521 8.71045
185 1 8.91145 11.4014 7.40967
104 1 6.73251 9.58153 9.41521
110 1 6.49943 9.08283 10.8292
86 1 6.07477 10.1283 11.7812
115 1 10.3233 1.23323 2.44296
116 1 11.6482 0.993539 2.82226
112 1 9.70433 1.22206 1.2498
111 1 9.4857 1.66562 3.53701
126 1 10.9251 0.207048 4.75638
120 1 9.76984 1.11383 4.82804
123 1 9.07273 1.35593 5.95414
127 1 9.85358 0.871564 7.35898
189 1 11.3665 0.497339 7.24559
131 1 9.26943 1.27343 8.8753
135 1 9.92736 2.45712 9.72437
136 1 9.31994 2.91918 10.9834
105 1 11.8296 0.0101488 10.1355
119 1 10.0568 4.12402 1.1601
117 1 11.2913 4.10232 1.87838
157 1 11.3328 4.9189 4.17809
124 1 9.18021 3.70881 5.01453
146 1 11.3855 3.97031 3.30822
138 1 10.2186 5.74187 3.89366
161 1 10.2777 4.94223 8.31128
155 1 9.72347 4.77316 7.05922
133 1 11.4486 4.36918 8.8939
122 1 11.7791 3.7662 6.22739
125 1 10.4313 4.01175 6.05778
163 1 9.44619 5.61201 9.18789
113 1 9.86272 3.82653 11.855
132 1 11.2015 3.12199 9.46298
143 1 9.41135 6.11047 2.82495
168 1 11.139 7.60473 0.563201
149 1 9.69535 7.6531 5.41856
152 1 10.827 7.13612 6.19421
159 1 9.168 7.09184 8.9772
158 1 11.2905 7.02504 10.2119
164 1 10.4181 7.84684 9.49228
79 1 11.2299 6.74242 11.5198
172 1 10.0074 10.0659 4.56232
173 1 11.0291 10.7553 5.07982
175 1 9.42791 9.05859 5.30838
179 1 9.28849 10.6904 3.58403
182 1 11.2861 9.8532 8.11419
186 1 11.4828 11.032 7.29613
176 1 11.9937 10.5963 6.03074
187 1 10.2157 9.88624 10.5578
190 1 10.9942 11.1135 10.7664
183 1 10.5117 9.3033 9.2034
191 1 9.03 9.33326 11.045
ITEM: TIMESTEP
2000
ITEM: NUMBER OF ATOMS
191
ITEM: BOX BOUNDS pp pp pp
-1.1154789993250355e-01 1.2111547899932475e+01
-1.1154789993250355e-01 1.2111547899932475e+01
-1.1154789993250355e-01 1.2111547899932475e+01
ITEM: ATOMS id type x y z
4 1 1.89425 2.87209 1.42038
12 1 1.2568 0.692629 4.81313
118 1 0.0629114 0.343625 3.85259
13 1 1.24782 1.40526 6.04383
31 1 2.64811 0.971341 8.66707
32 1 1.15864 0.811624 8.54378
11 1 0.533694 0.846974 7.22613
17 1 2.4487 2.17734 6.22121
28 1 0.261885 1.04423 9.67533
38 1 2.6416 2.05214 10.6887
30 1 1.4083 2.67963 11.0235
29 1 0.214015 2.33468 10.2447
7 1 0.39753 4.7973 1.3677
6 1 1.18167 3.82357 0.726125
45 1 1.03718 5.82946 2.0686
14 1 2.22208 3.5516 6.49526
22 1 0.852083 3.9001 7.00686
63 1 0.662746 4.69218 8.2444
34 1 1.40678 4.00718 11.5762
64 1 1.79123 5.1031 10.5883
66 1 1.91904 4.65251 9.15513
39 1 0.237613 8.7126 0.965971
43 1 2.59697 8.01347 0.756456
42 1 1.43983 8.02927 1.59285
54 1 2.40912 6.71339 5.5831
50 1 2.24175 8.68825 3.90219
52 1 0.911001 6.32913 5.65936
60 1 2.69246 8.02103 5.09295
53 1 0.418576 6.03032 4.29611
40 1 0.993351 6.54681 3.20017
41 1 1.69858 7.72401 3.0137
108 1 1.4329 8.50776 8.66559
67 1 1.75568 7.11598 8.23339
71 1 0.610793 6.26818 7.90072
59 1 -0.0321796 6.57353 6.6508
77 1 2.01219 6.32454 11.2469
76 1 1.94132 7.69827 11.6326
75 1 1.29345 8.89774 10.9713
89 1 1.5307 10.677 0.741972
84 1 1.39996 10.5186 2.18843
80 1 0.708782 9.68481 -0.153577
83 1 2.19415 10.0423 3.33062
21 1 1.8886 11.6793 5.02607
96 1 1.24249 10.6588 5.68347
176 1 -0.148489 10.6413 5.96839
109 1 0.231192 9.02136 8.13008
107 1 1.86477 9.19826 9.78427
3 1 5.10062 1.21831 1.99528
1 1 3.86111 1.77842 2.2475
16 1 4.14952 0.0217018 5.54499
18 1 3.84578 1.44282 5.93354
9 1 5.6455 2.90588 7.26048
24 1 5.64811 2.27099 8.64014
10 1 4.91332 2.12711 6.36343
25 1 3.08794 2.1405 9.3966
36 1 2.93819 0.870467 11.6111
26 1 5.72325 0.863962 8.89501
48 1 4.27102 4.95859 0.617311
44 1 5.56907 5.23083 2.65953
46 1 4.37169 4.79064 2.01322
8 1 3.41299 4.04501 2.66415
5 1 2.94234 2.78165 2.36595
56 1 5.06799 5.78372 5.62663
51 1 3.53578 5.82282 5.91282
70 1 3.16881 5.17666 8.43721
57 1 3.10802 4.61259 6.90734
78 1 4.80728 4.63606 11.6328
68 1 4.24696 4.46798 9.27769
69 1 4.80226 5.2423 10.2897
37 1 5.5899 3.45654 11.6401
27 1 4.29525 2.99923 9.17164
47 1 5.11859 7.81417 2.40866
82 1 4.67919 8.63971 1.42242
90 1 3.48029 9.11821 0.821805
92 1 5.05977 8.39004 3.74019
55 1 5.79752 7.09114 5.58669
73 1 4.08827 7.70088 8.58404
62 1 5.46646 7.51908 8.04794
61 1 5.74383 8.02876 6.70454
65 1 3.07692 6.72303 8.42874
102 1 4.24449 9.04398 9.10858
72 1 5.42232 6.44147 10.0419
81 1 5.48206 7.56439 10.9945
88 1 3.5074 11.3227 1.99864
85 1 3.03274 10.7878 0.430478
91 1 5.72869 9.55399 1.04501
87 1 3.32256 11.0327 3.27816
94 1 5.49914 11.7136 5.43487
20 1 3.22241 11.6464 4.58123
97 1 5.57319 10.2914 5.24277
95 1 5.71514 9.59637 4.0128
93 1 5.46878 9.59539 6.54136
100 1 5.29222 10.6178 7.74885
101 1 5.44381 9.71832 8.86463
106 1 4.83796 12.2515 8.32277
33 1 3.54871 12.1293 9.01429
98 1 3.31695 11.1159 10.0746
103 1 3.24452 11.6809 11.4462
99 1 3.15409 9.72055 9.85486
86 1 5.91017 9.91622 11.8788
114 1 8.69541 1.78625 0.402949
2 1 6.24656 1.16601 2.73744
15 1 6.90296 0.156091 4.94003
19 1 7.03165 0.728429 3.61973
121 1 8.08432 -0.0205472 5.71114
129 1 8.15586 0.30622 9.50556
130 1 8.08748 2.46631 11.5286
137 1 6.78642 0.400932 10.0677
134 1 6.68265 2.778 11.0535
147 1 7.90871 4.62648 2.42172
139 1 9.08686 5.36558 2.08775
141 1 6.63805 4.49199 3.28968
150 1 8.2092 3.70016 4.98767
156 1 6.84993 4.20772 4.6783
58 1 5.87075 4.57196 5.7829
151 1 8.5609 5.27007 6.94832
166 1 7.46559 4.50685 7.67073
23 1 6.23445 4.07581 7.03917
167 1 7.51921 4.08798 9.08007
165 1 8.64794 4.41907 9.78823
35 1 6.68335 3.07701 9.49921
171 1 7.90474 8.46063 1.52453
140 1 7.67101 7.63609 0.239171
142 1 8.28025 7.49467 2.60183
145 1 6.73924 6.56973 0.754599
49 1 6.02372 6.59111 2.25624
144 1 7.12011 6.9871 3.38239
148 1 7.08599 6.9563 4.86551
154 1 8.36681 7.06129 5.4693
153 1 8.35426 6.67434 6.82154
162 1 8.6376 7.56859 7.79699
188 1 7.92885 8.3598 11.1055
160 1 7.6953 7.19501 9.81394
74 1 6.32816 6.8783 9.12213
159 1 9.06779 7.04404 9.20256
110 1 6.51367 9.01435 10.7728
169 1 6.86914 9.44842 1.80703
174 1 8.01966 10.7369 3.50902
170 1 6.86933 9.94802 3.25343
177 1 8.86176 9.5956 6.46097
178 1 8.78705 11.104 6.37236
180 1 7.894 9.84337 8.69864
181 1 8.41813 11.2741 8.71824
184 1 8.48528 8.93868 7.68542
104 1 6.68135 9.60965 9.48708
191 1 8.99055 9.44307 10.9622
115 1 10.8008 1.32277 2.22589
112 1 9.90594 1.27222 1.03819
116 1 12.2079 0.844935 2.57692
111 1 10.1187 2.10975 3.31227
123 1 8.99139 0.962317 5.27322
120 1 10.0268 1.02778 4.38006
127 1 10.1511 0.704209 7.75027
189 1 11.4834 0.222242 7.37536
131 1 9.41482 1.35201 8.99494
135 1 9.91465 2.45366 9.75685
105 1 11.6186 -0.069589 10.216
119 1 9.93888 4.79856 1.07938
117 1 11.2682 4.60498 1.78034
157 1 11.303 5.64048 3.93517
124 1 9.7399 3.70649 4.96073
128 1 10.4977 3.33521 3.8175
146 1 11.1227 4.37133 3.16865
161 1 10.4407 5.08799 8.46036
155 1 9.93818 4.86246 7.11818
122 1 11.9059 3.71313 6.21876
125 1 10.5989 4.02152 6.13278
133 1 11.5237 4.34384 8.87587
163 1 9.45139 5.51954 9.25234
136 1 9.12085 3.31569 10.7252
113 1 9.66927 4.37307 12.0113
132 1 11.3477 2.98261 9.59238
143 1 9.32965 6.59086 2.73482
168 1 11.3671 7.89322 0.669682
149 1 9.69219 7.50421 5.1109
138 1 10.1125 6.66973 3.90681
152 1 11.0221 7.28803 6.22437
158 1 11.1331 7.59401 10.438
164 1 10.3548 7.82249 9.31579
79 1 10.8086 7.62894 11.7491
172 1 10.2145 9.92246 4.50004
173 1 11.1397 10.9254 4.83321
179 1 9.33955 10.5288 3.61729
126 1 11.0685 12.2694 4.42055
175 1 9.60285 8.96929 5.28546
182 1 11.3953 9.90905 8.15109
186 1 11.5515 11.0157 7.24345
185 1 9.3342 11.7396 7.68161
183 1 10.4028 9.38669 9.00054
187 1 10.1555 10.001 10.2364
190 1 10.799 11.1624 10.4719
ITEM: TIMESTEP
3000
ITEM: NUMBER OF ATOMS
191
ITEM: BOX BOUNDS pp pp pp
-2.1495726754151565e-01 1.2214957267541497e+01
-2.1495726754151565e-01 1.2214957267541497e+01
-2.1495726754151565e-01 1.2214957267541497e+01
ITEM: ATOMS id type x y z
12 1 0.986732 0.558099 4.94604
118 1 -0.00500914 0.72555 3.94544
31 1 2.69876 0.891847 8.9757
32 1 1.27896 0.650286 8.61955
11 1 0.492828 0.681206 7.41279
13 1 1.07453 1.3424 6.18872
17 1 2.29679 2.17179 6.3115
28 1 0.324982 0.704848 9.79105
38 1 2.5602 1.90716 11.0887
30 1 1.19139 2.51144 11.212
29 1 0.0970775 2.0809 10.2652
36 1 2.67485 0.464318 11.7997
7 1 -0.0850972 4.77741 1.22845
6 1 0.659261 3.85066 0.570335
45 1 0.478044 5.84311 1.84021
5 1 2.68322 3.18005 2.04072
4 1 1.38804 2.93732 1.37008
14 1 1.98111 3.6351 6.63392
22 1 0.63173 3.85723 7.09205
63 1 0.516835 4.56394 8.38548
57 1 2.85749 4.82525 6.88977
34 1 1.21871 3.81833 11.7251
64 1 1.69598 4.88171 10.8402
66 1 1.81345 4.65006 9.42019
39 1 0.208248 8.76018 0.488773
41 1 1.41526 7.83527 2.60486
42 1 1.29804 8.25381 1.21538
43 1 2.51982 8.15795 0.446179
40 1 0.893635 6.53298 3.00601
54 1 2.24027 6.80542 5.26961
50 1 1.8985 8.84373 3.6717
52 1 0.834791 6.55165 5.32093
60 1 2.42212 8.23521 4.86391
53 1 0.230219 6.26491 4.14616
108 1 1.35113 8.28951 8.62228
67 1 1.74246 7.06991 8.35344
71 1 0.564656 6.08968 7.78865
59 1 -0.0339554 6.61164 6.47995
109 1 0.373747 8.62663 7.7241
75 1 1.27821 8.78387 10.9342
76 1 1.95789 7.6384 11.6725
77 1 1.79555 6.17782 11.1857
89 1 1.63803 10.3847 0.329309
84 1 1.56096 10.3465 1.75368
96 1 1.0521 10.7066 5.6127
21 1 1.85903 11.7883 5.09159
83 1 2.12595 10.1759 3.03186
80 1 0.702905 9.6464 11.9434
107 1 1.67279 9.14367 9.63425
1 1 3.37831 2.03572 2.33033
16 1 4.2224 0.00738899 5.42822
2 1 5.77704 1.96937 3.56997
3 1 4.61822 1.7417 2.82756
18 1 3.71399 1.52511 5.84361
26 1 5.76702 0.671758 8.75588
24 1 5.52272 2.30067 8.68243
10 1 4.82969 2.23446 6.32041
9 1 5.56308 2.81402 7.30839
25 1 3.1795 1.98945 9.77996
27 1 4.2574 2.77439 9.4083
48 1 4.90826 5.10751 0.34528
44 1 5.44408 5.52152 2.72168
46 1 4.41686 5.10536 1.71813
8 1 3.31354 4.40532 2.14586
58 1 5.83683 4.70337 5.63803
51 1 3.25281 5.86737 5.91948
70 1 3.11068 5.05455 8.5784
78 1 5.37948 4.41887 11.5795
68 1 4.22552 4.41188 9.45118
69 1 5.03318 5.20661 10.3248
37 1 5.68537 2.97744 11.8139
47 1 4.82551 8.00712 2.5898
82 1 4.65348 8.66563 1.41665
49 1 5.65969 6.88238 2.86459
90 1 3.56729 9.07937 0.533594
55 1 5.79635 7.22737 5.6268
92 1 4.86941 8.77779 3.73598
56 1 4.99091 5.91812 5.79681
73 1 4.19093 7.69774 8.47794
62 1 5.59121 7.6786 8.01802
61 1 5.60106 8.23671 6.60326
65 1 3.0404 6.60139 8.60967
102 1 4.0697 9.01388 9.24595
72 1 5.6526 6.5614 10.2204
81 1 5.59621 7.67135 11.1626
88 1 4.07197 11.4313 2.31004
91 1 5.87435 9.45647 0.923864
85 1 3.04339 10.4061 -0.0752324
87 1 3.23579 10.9513 3.37876
94 1 5.59805 11.8525 5.37644
20 1 3.20021 11.7573 4.55545
97 1 5.76265 10.3847 5.45339
95 1 5.83269 9.70106 4.06513
93 1 5.46095 9.62762 6.62548
100 1 5.16632 10.517 7.76923
106 1 4.81127 12.1037 8.24239
33 1 3.56914 12.1159 9.04191
101 1 5.23615 9.82939 8.91219
98 1 3.234 11.1207 10.042
99 1 2.88155 9.87895 9.57767
103 1 3.09907 11.471 11.4237
114 1 8.76841 1.78527 0.459512
15 1 6.75478 0.168488 5.25054
19 1 6.63124 1.48228 4.45167
123 1 8.91701 0.859866 5.2073
121 1 8.07467 -0.225785 5.64023
129 1 8.41359 0.0911828 9.56281
130 1 8.20733 2.31782 11.7235
137 1 6.91992 0.315341 9.46224
134 1 6.88675 2.36124 11.0402
35 1 6.6971 2.76854 9.58726
147 1 7.49015 4.51438 2.21043
139 1 8.72226 5.07228 1.97296
141 1 6.5438 4.67309 3.19212
150 1 8.21681 4.02813 4.7793
156 1 6.70983 4.45893 4.63228
151 1 8.48371 5.304 7.16438
166 1 7.37469 4.4354 7.76704
23 1 6.12807 4.03019 6.98754
165 1 8.6008 4.33078 9.95361
167 1 7.44272 3.80549 9.13358
136 1 9.13198 3.27252 11.0579
171 1 8.02016 8.19 1.47537
140 1 8.63608 8.32225 0.117404
142 1 8.01671 7.2879 2.51989
143 1 9.10744 6.35745 2.8202
144 1 7.00641 7.24343 3.4316
148 1 7.17136 7.15478 4.78924
154 1 8.30462 6.9586 5.53409
153 1 8.23552 6.63665 6.8109
162 1 8.52878 7.63228 7.82581
184 1 8.25035 9.07621 7.68333
188 1 8.12192 8.46349 11.2153
160 1 7.9366 7.41696 10.0333
74 1 6.63564 7.18865 9.18998
110 1 6.63089 9.08533 11.0085
169 1 7.03422 9.19741 1.73829
174 1 8.0741 10.7453 3.13766
170 1 7.03174 9.95447 3.05346
177 1 8.4472 9.69249 6.36829
178 1 8.56089 11.1876 6.37777
180 1 7.74764 10.001 8.7654
181 1 8.54854 11.2723 8.82375
104 1 6.56097 9.7248 9.56255
86 1 6.08581 10.0055 12.0743
191 1 9.18923 9.49628 10.6674
115 1 10.8522 1.48741 2.37274
112 1 9.87313 1.54976 1.21943
116 1 12.0688 0.824941 2.5902
111 1 10.4108 2.10477 3.60377
120 1 10.1233 0.984231 4.49228
126 1 11.212 0.0366985 4.49734
127 1 10.4204 0.26696 8.08706
189 1 11.688 -0.187665 7.51317
135 1 10.2192 2.18912 10.004
131 1 9.76635 1.04592 9.15781
132 1 11.4343 2.86311 9.71597
119 1 9.82177 4.6476 1.04352
117 1 11.0606 4.44218 1.73055
113 1 9.49256 4.27536 -0.250314
157 1 11.3601 5.68836 3.96128
124 1 9.6555 3.87626 5.06467
128 1 10.5548 3.43274 3.93793
146 1 11.1208 4.39704 3.15249
161 1 10.4938 4.95258 8.51467
155 1 9.90896 4.81398 7.23036
125 1 10.5246 3.93811 6.27428
122 1 11.8339 3.54674 6.44407
133 1 11.6984 4.08153 8.93832
163 1 9.52546 5.35671 9.38179
168 1 11.4244 8.0379 0.179685
145 1 10.0296 8.41751 0.418336
149 1 9.79456 7.53398 5.14071
138 1 10.0945 6.52618 3.90504
175 1 9.67274 9.12256 5.41802
152 1 11.0174 7.27477 6.1184
183 1 10.9199 9.12608 9.06021
158 1 11.3834 7.14841 10.2253
164 1 10.4663 7.70725 9.24386
79 1 11.6046 7.10564 11.547
159 1 9.13382 7.1281 9.19039
172 1 10.2589 10.0346 4.45213
173 1 11.0923 11.1768 4.97242
179 1 9.29096 10.3592 3.46534
176 1 12.1371 10.7089 5.91492
182 1 11.8208 9.59567 8.04177
186 1 11.8316 10.7973 7.28538
185 1 9.20293 11.6636 7.64446
187 1 10.3672 9.98268 9.97729
190 1 11.1486 10.9819 10.3088
105 1 12.1369 11.9307 10.282
ITEM: TIMESTEP
4000
ITEM: NUMBER OF ATOMS
191
ITEM: BOX BOUNDS pp pp pp
-1.4584750518181583e-01 1.2145847505181772e+01
-1.4584750518181583e-01 1.2145847505181772e+01
-1.4584750518181583e-01 1.2145847505181772e+01
ITEM: ATOMS id type x y z
116 1 -0.152698 0.90591 2.18375
12 1 1.08916 0.4557 4.76237
118 1 0.170323 0.447169 3.61894
13 1 1.15996 1.11431 5.9623
31 1 2.62604 0.852245 8.70717
32 1 1.22967 0.774842 8.41663
11 1 0.484419 0.794517 7.18208
17 1 2.40801 1.86939 6.1011
28 1 0.408642 0.938577 9.5203
38 1 2.58665 1.82551 10.9096
30 1 1.37886 2.56327 10.9305
29 1 0.303789 2.30881 9.85218
36 1 2.73273 0.580885 11.4967
105 1 -0.109373 -0.116662 10.2961
7 1 0.0655105 4.77964 1.17048
6 1 0.938868 3.74272 0.718427
45 1 0.776713 5.66638 1.97142
4 1 1.69946 3.13983 1.72881
5 1 2.74931 3.48651 2.51785
14 1 2.13831 3.31849 6.51298
63 1 0.501826 5.16523 8.72319
22 1 0.754885 3.52113 6.48039
34 1 1.27627 3.78898 11.6919
64 1 1.68757 4.99305 10.9337
66 1 1.692 4.88605 9.47451
39 1 -0.0643922 8.63554 0.802871
43 1 2.38525 8.03544 0.621019
42 1 1.12749 8.03524 1.34173
41 1 1.40872 7.76728 2.68303
54 1 2.43109 6.63707 5.25959
50 1 2.23302 8.63632 3.41459
52 1 1.00347 6.40084 5.42409
60 1 2.78296 7.78111 4.44624
40 1 1.0669 6.4298 3.05168
53 1 0.264494 6.09365 4.17628
108 1 1.34103 8.4378 8.69416
67 1 1.67768 7.20401 8.29476
71 1 0.723593 6.29864 7.80696
59 1 0.10633 6.51869 6.5914
75 1 1.27013 8.8666 11.1129
76 1 1.99759 7.67087 11.6603
77 1 1.48731 6.3137 11.3612
89 1 1.42803 10.5262 0.533562
84 1 1.44452 10.674 1.97445
85 1 2.8496 10.4873 0.134305
96 1 1.10281 10.4132 5.5596
21 1 1.86992 11.4664 5.00781
83 1 2.34241 10.0488 3.03846
109 1 0.459948 9.1613 7.96875
107 1 1.77092 9.10796 9.78759
80 1 0.393301 9.64765 12.2071
1 1 3.66231 2.22396 2.71219
3 1 4.97774 1.87989 2.90962
18 1 3.69497 1.25042 5.94261
16 1 4.18876 -0.0052784 5.47174
26 1 5.84823 0.771886 8.76723
24 1 5.64152 2.23566 8.78098
10 1 4.76922 2.09597 6.44508
9 1 5.52236 2.83532 7.36825
25 1 3.2041 2.0114 9.64917
27 1 4.30917 2.77205 9.32053
48 1 4.6149 4.75521 0.59349
8 1 3.30424 4.67343 2.6204
46 1 4.50646 5.02234 1.99001
44 1 5.46303 5.54235 2.80299
58 1 5.77739 4.58699 5.7685
56 1 5.07179 5.8459 5.75403
70 1 3.06961 5.13191 8.62518
57 1 3.27207 4.75467 7.072
51 1 3.60062 5.72969 6.06858
78 1 5.09066 4.2217 11.6436
68 1 4.20593 4.22401 9.63508
69 1 5.01209 4.9465 10.4305
37 1 5.79726 3.03539 11.7191
47 1 4.77599 8.0933 2.48545
82 1 4.53864 8.72981 1.21951
49 1 5.53619 6.90678 2.7858
90 1 3.29399 9.11378 0.665031
92 1 4.85128 8.87513 3.76768
55 1 5.91504 7.00197 5.85058
73 1 4.2895 7.64881 8.76441
62 1 5.67063 7.38577 8.27218
61 1 5.78207 8.03935 6.82759
65 1 3.09737 6.69281 8.54399
102 1 4.18999 8.95021 9.35471
72 1 5.73536 6.20773 10.4016
81 1 5.53743 7.08303 11.6138
88 1 4.39938 11.3805 2.58101
91 1 5.7096 9.4363 0.843771
97 1 5.70375 10.3361 5.36674
94 1 5.63179 11.7406 5.55103
87 1 3.3668 10.9798 3.38717
20 1 3.24284 11.5726 4.63346
95 1 5.80412 9.91698 4.05314
93 1 5.5198 9.51854 6.61334
100 1 5.24096 10.4049 7.84028
106 1 4.89368 11.7791 8.1851
33 1 3.5925 11.9857 8.85161
98 1 3.25198 11.1367 10.0682
99 1 3.06226 9.72784 9.74856
103 1 3.16126 11.5461 11.4141
86 1 5.88259 9.95667 11.8584
101 1 5.3959 9.63067 9.07769
114 1 9.16386 1.86504 -0.120362
123 1 8.90417 0.334413 4.43006
19 1 6.66738 1.38478 4.62319
15 1 6.80047 0.331614 5.51193
2 1 6.16317 1.7923 3.43706
129 1 8.32603 0.157257 9.47317
137 1 6.94689 0.459122 9.62846
134 1 6.91891 2.55433 10.9063
35 1 6.80563 2.86573 9.55995
130 1 8.36462 2.62958 11.3864
147 1 7.71903 4.7786 2.41841
139 1 8.88599 5.50837 2.09214
156 1 6.73427 4.36048 4.70656
150 1 8.01048 3.71712 5.02351
141 1 6.58981 4.83156 3.38387
151 1 8.33763 5.04895 7.02032
166 1 7.27988 4.47499 7.75218
23 1 6.14404 4.02445 7.01676
167 1 7.38066 4.0921 9.11686
165 1 8.28321 4.6959 9.9669
136 1 8.67996 4.08603 11.2006
171 1 7.73022 8.37467 1.57101
140 1 8.44852 8.26663 0.349161
142 1 7.98805 7.5482 2.75499
143 1 9.05397 6.69541 2.90718
144 1 6.78687 7.33833 3.61488
148 1 7.09045 7.03696 4.9588
154 1 8.36264 6.86113 5.56247
153 1 8.35377 6.53443 6.9772
162 1 8.52519 7.58415 7.89904
184 1 8.48564 8.99389 7.68478
188 1 8.08025 8.77008 11.184
160 1 7.7936 7.61308 10.0879
74 1 6.52068 7.00951 9.45933
169 1 6.84834 9.35821 1.70258
170 1 6.88891 9.96863 3.02166
174 1 8.04883 10.6455 3.29154
121 1 8.0596 11.9336 5.33954
181 1 8.46743 11.1117 8.70716
178 1 8.65815 11.0299 6.24637
180 1 7.78674 9.93591 8.63986
177 1 8.83402 9.51168 6.30739
185 1 9.13256 11.5695 7.45101
104 1 6.63538 9.65907 9.55939
110 1 6.8996 9.57954 10.9421
115 1 10.8688 1.56424 1.91528
112 1 10.1528 1.67668 0.780189
111 1 10.1861 1.84105 3.17777
120 1 10.1303 0.724481 3.99268
126 1 11.2167 -0.20573 4.00714
127 1 10.0878 0.406575 7.69133
131 1 9.44708 0.98147 9.02037
189 1 11.48 0.0663129 7.3403
135 1 10.2239 2.15385 9.37865
119 1 9.89293 4.95395 1.10245
117 1 11.0382 4.57522 1.63998
113 1 9.25005 4.84955 -0.137914
157 1 11.1564 5.72096 3.91877
124 1 9.44243 3.45927 5.01439
128 1 10.252 3.21805 3.84792
146 1 11.0891 4.33551 3.33501
161 1 10.24 5.00704 8.54145
155 1 9.64422 4.49237 7.2156
122 1 11.7967 3.76986 6.11051
125 1 10.3234 3.90378 6.09025
163 1 9.27358 5.67219 9.40311
132 1 11.4622 2.99483 9.51325
133 1 11.5374 4.45822 9.02263
168 1 11.1592 7.86028 0.226057
145 1 9.81363 8.01683 0.694813
149 1 9.83636 7.31347 5.20052
138 1 10.0908 6.69033 3.83071
175 1 9.62344 8.86285 5.2826
152 1 11.0198 7.04748 6.14083
158 1 11.2667 7.00078 10.2207
164 1 10.4875 7.87419 9.37812
79 1 11.3271 6.94617 11.5657
159 1 9.01007 7.26469 9.25912
172 1 10.1254 9.94863 4.36186
173 1 11.0802 10.952 4.81283
176 1 12.0656 10.6432 5.75288
179 1 9.34618 10.4838 3.45279
182 1 11.6312 9.84432 8.00939
186 1 11.6995 10.9364 7.12189
183 1 10.744 9.33168 9.05925
187 1 10.3662 10.3773 10.0761
190 1 11.1151 11.4751 10.2389
191 1 9.46801 9.85341 11.0279
ITEM: TIMESTEP
5000
ITEM: NUMBER OF ATOMS
191
ITEM: BOX BOUNDS pp pp pp
-1.0177193289889376e-01 1.2101771932898806e+01
-1.0177193289889376e-01 1.2101771932898806e+01
-1.0177193289889376e-01 1.2101771932898806e+01
ITEM: ATOMS id type x y z
5 1 2.51504 2.76958 2.33272
116 1 0.0972 1.15555 2.58964
12 1 1.14737 0.508896 4.93416
118 1 0.0994396 0.595806 4.04583
31 1 2.72098 0.830272 8.73428
32 1 1.32214 0.728416 8.56094
11 1 0.533885 0.797987 7.28096
17 1 2.38653 1.98611 6.31954
13 1 1.24588 1.13414 6.15417
28 1 0.471183 0.731603 9.81772
38 1 2.68035 1.69258 11.006
30 1 1.38119 2.54 11.0896
29 1 0.219118 2.02679 10.2992
36 1 2.76192 0.424116 11.5731
7 1 0.170468 4.91486 1.19371
6 1 0.763284 3.76099 0.681552
45 1 1.08748 5.58177 2.15476
4 1 1.33977 3.08228 1.73869
22 1 0.939882 3.77222 6.01828
14 1 2.19936 3.37953 6.46335
63 1 0.615738 4.87451 8.77833
34 1 1.45497 3.81797 11.75
64 1 1.9354 4.91083 10.8836
66 1 1.89 4.72388 9.47929
39 1 0.136421 8.78985 0.973808
43 1 2.38573 7.82965 0.607363
42 1 1.25886 8.04076 1.52361
41 1 1.50389 7.83016 2.83493
54 1 2.37634 6.59313 5.62077
50 1 2.33786 8.59501 3.68948
52 1 0.93163 6.2165 5.52341
60 1 2.6511 7.80351 4.83144
40 1 1.11337 6.53189 3.20939
53 1 0.123092 6.33752 4.20254
108 1 1.39932 8.26222 8.56087
67 1 1.79989 6.95094 8.29091
71 1 0.877366 6.00901 7.85594
59 1 0.0988955 6.32013 6.68159
109 1 0.551734 8.90503 7.70864
75 1 1.31033 8.69653 11.036
76 1 1.832 7.50537 11.6247
77 1 1.69127 6.23278 11.216
107 1 1.83884 8.94171 9.78881
89 1 1.62844 10.4564 0.733409
84 1 1.6496 10.5853 2.17729
80 1 0.769148 9.59452 -0.108719
96 1 0.922145 10.326 5.27155
21 1 1.72847 11.365 5.19312
83 1 2.51223 9.84763 3.05183
105 1 0.116624 11.7822 10.5162
1 1 3.1219 1.52158 2.23959
3 1 4.357 0.964291 2.65181
16 1 4.10987 0.0695062 5.56155
2 1 5.47585 1.82132 3.30169
18 1 3.73954 1.39725 5.93403
24 1 5.58701 2.38419 8.69415
10 1 4.83232 2.19451 6.14424
26 1 5.9543 0.771213 8.65631
9 1 5.66761 2.73358 7.19
25 1 3.14441 1.93065 9.62019
27 1 4.24279 2.78705 9.27162
48 1 4.55667 4.56475 0.610165
44 1 5.25813 5.42398 2.66185
46 1 4.36364 4.66119 1.94407
8 1 3.45107 3.78546 2.51375
58 1 5.95393 4.67902 5.73214
56 1 4.92852 5.84409 5.94423
70 1 3.12177 4.95931 8.7005
57 1 2.93374 4.51543 7.14375
51 1 3.43469 5.63936 6.06201
78 1 5.15101 4.14334 11.5694
68 1 4.25351 4.26322 9.42148
69 1 4.98329 4.98473 10.4515
47 1 4.63521 7.99486 2.74273
49 1 5.34392 6.76653 3.00504
82 1 4.40759 8.60271 1.42189
90 1 3.36427 8.79942 0.572515
55 1 5.71746 7.07381 5.8088
92 1 4.90729 8.90499 3.88789
65 1 3.1715 6.47482 8.59527
62 1 5.58213 7.2968 8.2447
61 1 5.7071 8.09717 6.89862
73 1 4.25446 7.38912 8.78918
102 1 4.21029 8.79537 9.44792
81 1 5.62484 6.803 11.7331
72 1 5.76769 6.2314 10.4862
91 1 5.56458 9.27861 0.936927
88 1 4.13059 11.7912 2.83364
85 1 2.95369 10.3119 0.194535
97 1 5.74927 10.4172 5.60047
94 1 5.64786 11.8286 5.56192
87 1 3.33306 10.9478 3.62596
95 1 5.78099 9.88479 4.26904
20 1 3.07414 11.449 5.03042
93 1 5.7696 9.51094 6.68173
100 1 5.35735 10.4603 7.90571
106 1 4.91503 11.8258 8.28541
33 1 3.62708 11.9421 8.82105
98 1 3.29676 10.9512 9.89855
99 1 3.07112 9.51292 9.6606
103 1 3.35523 11.3436 11.4093
86 1 5.82626 9.65781 11.7816
101 1 5.51789 9.64287 9.21364
15 1 6.62847 0.393881 5.10346
19 1 6.35273 1.48111 4.32342
123 1 8.86839 1.02373 4.91866
121 1 7.9377 0.169288 5.41981
129 1 8.43749 0.186127 9.3459
137 1 7.18961 0.569972 9.32628
134 1 7.25531 2.67989 10.9043
130 1 8.68413 2.95624 11.2415
35 1 6.88302 3.0276 9.47629
147 1 7.51951 4.4576 2.28738
139 1 8.63948 5.27346 1.92426
156 1 6.7903 4.46408 4.58903
150 1 8.1775 4.0896 4.80587
141 1 6.46508 4.65095 3.21308
151 1 8.5716 5.25312 6.99513
166 1 7.48136 4.40701 7.54575
23 1 6.41506 3.89563 6.89777
167 1 7.78482 3.9411 8.79901
165 1 8.70231 4.78226 9.66681
136 1 8.93473 4.26442 10.9044
37 1 6.07057 3.00892 11.5766
171 1 7.68395 8.60631 1.83551
140 1 8.62141 8.95679 0.747718
142 1 7.81144 7.42669 2.6107
143 1 8.84031 6.53728 2.78924
144 1 6.62977 7.17477 3.51113
148 1 6.85041 7.10328 4.87468
154 1 8.19873 7.04908 5.42686
153 1 8.37273 6.67088 6.7096
162 1 8.76809 7.64939 7.66195
184 1 8.37848 9.03866 7.42329
160 1 7.81453 7.34257 9.62648
74 1 6.48244 6.7755 9.4031
169 1 6.48298 9.60622 1.93766
174 1 7.74074 10.9737 3.18898
170 1 6.62073 10.3693 3.11403
181 1 8.46885 11.2023 8.51783
178 1 8.53891 11.2419 6.16851
180 1 7.85519 9.84593 8.54997
177 1 8.43388 9.82734 6.05666
104 1 6.92539 9.70273 9.65123
110 1 7.08661 9.6903 11.0702
188 1 8.32827 9.41206 11.6338
115 1 11.1429 1.73368 2.10328
112 1 10.4226 1.80241 0.843564
114 1 9.58537 2.27093 -0.184702
111 1 10.2103 2.2034 3.16761
120 1 10.0475 1.17795 4.22016
126 1 11.0127 0.13298 4.4508
127 1 10.1712 0.367027 7.69604
189 1 11.5628 -0.0883147 7.34714
131 1 9.55857 1.05861 8.86851
135 1 10.1289 2.20064 9.38174
132 1 11.3779 2.85444 9.53929
119 1 9.7527 4.91695 1.10203
117 1 11.0121 4.8518 1.6963
146 1 10.8124 4.73688 3.16298
124 1 9.54574 3.83445 4.75198
128 1 10.1919 3.53002 3.59365
125 1 10.451 3.84916 5.90555
122 1 11.8577 3.81281 5.64878
161 1 10.4559 4.73977 8.20408
155 1 9.84143 4.54637 7.0035
133 1 11.5662 4.17556 8.73326
163 1 9.5623 5.62582 8.95952
113 1 9.65555 4.96897 11.959
168 1 11.0905 8.27568 0.831922
145 1 9.93013 8.88139 1.2111
149 1 9.30454 7.81083 4.77021
138 1 9.81463 6.97277 3.68202
157 1 10.9591 6.00302 3.86403
152 1 11.0753 6.8417 6.56239
159 1 9.18067 7.20236 8.89071
158 1 10.8473 7.25788 10.6372
79 1 11.0683 7.34226 11.9891
164 1 10.3081 7.85221 9.50379
172 1 9.88359 10.1949 4.20488
173 1 10.8222 10.9641 4.78944
176 1 11.7214 10.4503 5.6651
175 1 9.28001 9.17259 5.05675
179 1 9.09527 10.693 3.14618
182 1 11.7007 9.71717 8.05891
186 1 11.671 10.7494 7.08237
185 1 9.17522 11.5965 7.37852
187 1 10.5104 10.0569 10.0915
190 1 11.5453 10.789 10.5469
191 1 9.36829 9.97802 10.7857
183 1 10.6847 9.20013 9.00037
ITEM: TIMESTEP
6000
ITEM: NUMBER OF ATOMS
191
ITEM: BOX BOUNDS pp pp pp
-1.7095004029861829e-01 1.2170950040298552e+01
-1.7095004029861829e-01 1.2170950040298552e+01
-1.7095004029861829e-01 1.2170950040298552e+01
ITEM: ATOMS id type x y z
5 1 2.76947 2.67078 1.9164
12 1 1.0495 0.625687 4.84092
118 1 -0.049694 0.598765 3.9243
11 1 0.709786 0.534472 7.37504
32 1 1.52963 0.576868 8.55649
13 1 1.41802 1.17215 6.18093
17 1 2.63439 2.00078 6.18705
28 1 0.681452 0.837949 9.65279
38 1 2.73842 1.78898 10.9631
30 1 1.54225 2.71473 10.8864
29 1 0.431218 2.24547 9.99438
105 1 0.189687 -0.149052 10.5769
7 1 0.0544504 4.79191 1.1683
6 1 0.820926 3.7951 0.565115
45 1 0.932077 5.62498 1.96226
4 1 1.4426 3.04027 1.53769
22 1 0.790856 3.47918 5.94672