ITEM: TIMESTEP
1000
ITEM: NUMBER OF ATOMS
191
ITEM: BOX BOUNDS pp pp pp
0.0000000000000000e+00 1.2000000000000000e+01
0.0000000000000000e+00 1.2000000000000000e+01
0.0000000000000000e+00 1.2000000000000000e+01
ITEM: ATOMS id type x y z
12 1 1.20509 0.848646 4.8824
1 1 2.45416 2.21262 3.44646
118 1 0.0568909 0.931156 4.21542
31 1 2.7963 1.20012 8.59879
32 1 1.33362 1.11411 8.47168
11 1 0.524598 1.20419 7.34151
17 1 2.71238 2.40746 6.16634
13 1 1.38231 1.67759 6.10224
28 1 0.600435 1.06936 9.68613
29 1 0.380463 2.49177 10.0643
30 1 1.54051 2.88833 10.6729
38 1 2.76966 2.1392 10.5977
4 1 2.18611 3.42645 1.49308
6 1 1.37529 4.1638 0.681185
7 1 0.316389 4.7799 1.23673
5 1 2.72351 3.38718 2.80547
53 1 0.358511 5.83537 4.1516
14 1 2.48962 3.77126 6.47623
22 1 1.04066 4.12647 6.92577
63 1 0.861504 4.89394 8.19573
34 1 1.60511 4.1806 11.3394
64 1 1.84804 5.17285 10.4568
66 1 1.97643 4.87993 9.13738
39 1 0.181589 8.50532 0.712513
43 1 2.65505 8.15867 0.868042
42 1 1.41328 7.99508 1.5577
45 1 0.410238 6.0196 1.6437
40 1 0.607622 6.50916 2.98891
41 1 1.37971 7.70322 2.91852
54 1 2.3679 6.52629 5.21292
50 1 2.14686 8.46843 3.69532
52 1 1.04645 6.21113 5.25484
60 1 2.43505 7.90596 4.88676
59 1 0.319578 6.54721 6.41356
67 1 1.82448 7.31926 8.10585
71 1 0.824954 6.39916 7.65354
108 1 1.50378 8.72625 8.5489
75 1 1.63839 8.73584 10.9
76 1 2.39605 7.75422 11.4558
77 1 2.36185 6.3648 11.1126
89 1 1.68557 10.4378 0.778156
84 1 1.26087 10.293 2.26055
96 1 1.39937 10.5244 5.80047
21 1 1.92503 11.6793 5.0829
83 1 1.97272 9.86486 3.45811
109 1 0.460584 9.13924 7.92927
107 1 1.96788 9.23301 9.68906
80 1 0.964113 9.47731 11.8748
3 1 3.46182 1.23958 3.5408
16 1 4.12741 0.164967 5.50129
2 1 4.94593 1.47411 3.18049
9 1 5.79569 2.82726 7.153
24 1 5.70492 2.43076 8.65892
26 1 5.83625 0.933983 8.58776
10 1 5.33926 2.06308 6.16372
18 1 3.95423 1.52412 6.0336
25 1 3.47206 2.22466 9.36298
36 1 3.1563 1.05003 11.3995
48 1 4.33373 4.65548 0.709691
44 1 5.99016 5.22315 2.44868
46 1 4.83482 4.57961 2.03733
8 1 3.91788 4.06314 2.96916
58 1 5.89245 4.77236 5.62939
56 1 5.05263 5.94244 5.47293
51 1 3.61934 5.79543 5.77172
70 1 3.40603 5.25056 8.37877
57 1 3.29911 4.88631 6.83742
78 1 5.12797 4.29346 11.5245
68 1 4.40579 4.42649 9.42396
69 1 5.059 5.21573 10.3426
27 1 4.47806 3.0505 9.22505
47 1 5.19546 7.94796 2.43487
82 1 4.90455 8.78538 1.39948
92 1 5.0144 8.61295 3.70179
55 1 5.95341 7.18716 5.53858
73 1 4.19161 7.74413 8.55678
62 1 5.53684 7.49362 7.95057
65 1 3.19209 6.8109 8.4114
61 1 5.63671 8.06901 6.60218
72 1 5.55993 6.5066 10.3029
81 1 5.54413 7.76087 11.0694
88 1 3.49987 11.0428 2.1632
85 1 3.16455 10.4098 1.00517
91 1 5.91697 9.71594 1.04399
90 1 3.67653 9.11918 1.0001
94 1 5.51007 11.7138 5.47563
97 1 5.54044 10.2859 5.25334
87 1 3.11333 10.7168 3.43176
20 1 3.18504 11.8843 4.2963
95 1 5.89847 9.73487 4.04418
93 1 5.64775 9.60237 6.45837
100 1 5.39615 10.4731 7.59658
101 1 5.51693 9.71445 8.84227
106 1 4.93343 11.8978 7.96221
33 1 3.59975 11.9983 8.55921
98 1 3.50555 11.1841 9.68144
103 1 3.22428 11.7935 10.9441
99 1 3.27887 9.79207 9.59418
102 1 4.32834 9.07969 9.01661
114 1 8.60925 1.0636 0.341457
15 1 6.28686 1.03729 5.36838
19 1 6.14573 1.31933 3.9212
121 1 7.76238 0.614062 5.91285
128 1 8.88866 2.97665 3.70562
129 1 8.35478 0.18746 9.37563
130 1 8.26103 2.13424 11.4211
137 1 7.02759 0.504277 9.32774
134 1 6.96563 2.54662 10.8961
35 1 6.87822 2.8466 9.43909
147 1 8.12484 3.78741 2.81579
139 1 8.95702 4.71955 2.11283
141 1 6.86754 4.534 3.29409
150 1 8.14886 4.52859 5.47536
156 1 6.87198 4.6036 4.71775
151 1 8.27125 5.07366 6.80782
166 1 7.22697 4.60737 7.64401
23 1 6.11789 4.13615 6.99852
167 1 7.57641 4.01855 8.90824
165 1 8.33637 4.89564 9.7276
37 1 6.09022 3.28999 11.648
49 1 6.32647 6.66491 2.15676
140 1 7.99375 7.68454 0.383597
142 1 8.58072 7.38481 2.5869
145 1 6.96274 6.67636 0.681379
171 1 8.11027 8.45739 1.63405
144 1 7.31434 7.04926 3.2988
148 1 7.18411 7.1601 4.73754
154 1 8.35935 7.1502 5.53352
153 1 8.1698 6.55922 6.73473
162 1 8.58165 7.49694 7.74916
184 1 8.14193 8.93666 7.51019
188 1 7.99517 8.26872 11.0671
74 1 6.48352 6.90777 9.14608
160 1 7.81743 7.2395 9.89896
169 1 7.09657 9.53003 1.87342
174 1 7.97704 10.9841 3.56656
170 1 6.93637 10.1165 3.21665
177 1 8.34338 9.55504 6.12299
178 1 8.10362 11.1346 6.34415
180 1 7.89147 9.70405 8.60484
181 1 8.60636 10.9521 8.71045
185 1 8.91145 11.4014 7.40967
104 1 6.73251 9.58153 9.41521
110 1 6.49943 9.08283 10.8292
86 1 6.07477 10.1283 11.7812
115 1 10.3233 1.23323 2.44296
116 1 11.6482 0.993539 2.82226
112 1 9.70433 1.22206 1.2498
111 1 9.4857 1.66562 3.53701
126 1 10.9251 0.207048 4.75638
120 1 9.76984 1.11383 4.82804
123 1 9.07273 1.35593 5.95414
127 1 9.85358 0.871564 7.35898
189 1 11.3665 0.497339 7.24559
131 1 9.26943 1.27343 8.8753
135 1 9.92736 2.45712 9.72437
136 1 9.31994 2.91918 10.9834
105 1 11.8296 0.0101488 10.1355
119 1 10.0568 4.12402 1.1601
117 1 11.2913 4.10232 1.87838
157 1 11.3328 4.9189 4.17809
124 1 9.18021 3.70881 5.01453
146 1 11.3855 3.97031 3.30822
138 1 10.2186 5.74187 3.89366
161 1 10.2777 4.94223 8.31128
155 1 9.72347 4.77316 7.05922
133 1 11.4486 4.36918 8.8939
122 1 11.7791 3.7662 6.22739
125 1 10.4313 4.01175 6.05778
163 1 9.44619 5.61201 9.18789
113 1 9.86272 3.82653 11.855
132 1 11.2015 3.12199 9.46298
143 1 9.41135 6.11047 2.82495
168 1 11.139 7.60473 0.563201
149 1 9.69535 7.6531 5.41856
152 1 10.827 7.13612 6.19421
159 1 9.168 7.09184 8.9772
158 1 11.2905 7.02504 10.2119
164 1 10.4181 7.84684 9.49228
79 1 11.2299 6.74242 11.5198
172 1 10.0074 10.0659 4.56232
173 1 11.0291 10.7553 5.07982
175 1 9.42791 9.05859 5.30838
179 1 9.28849 10.6904 3.58403
182 1 11.2861 9.8532 8.11419
186 1 11.4828 11.032 7.29613
176 1 11.9937 10.5963 6.03074
187 1 10.2157 9.88624 10.5578
190 1 10.9942 11.1135 10.7664
183 1 10.5117 9.3033 9.2034
191 1 9.03 9.33326 11.045
ITEM: TIMESTEP
2000
ITEM: NUMBER OF ATOMS
191
ITEM: BOX BOUNDS pp pp pp
-1.1145020249963218e-01 1.2111450202499647e+01
-1.1145020249963218e-01 1.2111450202499647e+01
-1.1145020249963218e-01 1.2111450202499647e+01
ITEM: ATOMS id type x y z
116 1 -0.115001 0.866899 2.52262
4 1 1.83433 2.79357 1.40193
5 1 2.89888 2.69731 2.29817
12 1 1.25603 0.677085 4.79484
118 1 0.193615 0.413332 3.83075
31 1 2.68533 0.849417 8.63908
32 1 1.17409 0.695441 8.56456
11 1 0.46708 0.931875 7.34946
17 1 2.41875 2.21633 6.21867
13 1 1.24537 1.38793 6.13215
28 1 0.194952 0.95934 9.68126
38 1 2.67841 2.00954 10.7574
30 1 1.47159 2.69685 10.9216
29 1 0.268664 2.33979 10.162
36 1 2.88232 0.886441 11.6549
7 1 0.431065 4.82167 1.34412
6 1 1.14388 3.86602 0.759017
45 1 1.11731 5.81265 2.02892
14 1 2.15372 3.5559 6.59549
22 1 0.881879 3.95222 7.03829
63 1 0.716547 4.7203 8.31978
34 1 1.44769 3.96835 11.5665
64 1 1.81793 5.07205 10.5603
66 1 1.90233 4.78724 9.1775
39 1 0.211754 8.74195 0.90904
43 1 2.44646 8.0642 0.643736
42 1 1.37509 8.0671 1.61144
41 1 1.64365 7.80587 2.90264
54 1 2.39525 6.61835 5.56922
50 1 2.12375 8.74795 3.87694
52 1 0.958606 6.39825 5.66605
40 1 1.01548 6.5757 3.16591
60 1 2.59759 7.97634 5.12787
53 1 0.25474 6.04547 4.39275
108 1 1.36991 8.45345 8.65612
67 1 1.66547 7.09371 8.19722
71 1 0.601201 6.22099 7.88757
77 1 2.02587 6.30718 11.2907
76 1 1.86788 7.66182 11.6244
75 1 1.24309 8.85152 11.1075
89 1 1.61329 10.5926 0.730536
84 1 1.37036 10.5437 2.18552
80 1 0.801783 9.7095 0.00144086
83 1 2.22268 10.0307 3.34134
21 1 1.93195 11.6784 5.09676
96 1 1.19388 10.5859 5.55752
109 1 0.230051 9.06239 8.06093
107 1 1.7729 9.17074 9.78144
3 1 5.18396 1.23941 1.85843
1 1 3.89577 1.70092 2.26041
16 1 4.17543 0.0641333 5.47915
18 1 3.89756 1.38619 6.01466
26 1 5.86403 0.407027 8.98725
24 1 5.52637 2.71273 8.6379
10 1 4.99648 2.09376 6.36535
9 1 5.68818 2.88897 7.30555
25 1 3.21649 2.07787 9.45121
48 1 4.10129 4.98145 0.698588
44 1 5.5795 5.26551 2.64255
46 1 4.42592 4.76033 2.09799
8 1 3.38087 3.93815 2.77647
56 1 5.07164 5.73466 5.65302
51 1 3.60371 5.80629 5.92597
58 1 5.87687 4.50272 5.70695
70 1 3.13388 5.19905 8.36965
57 1 3.22205 4.77147 6.90559
78 1 4.86254 4.6374 11.6032
68 1 4.16768 4.58807 9.29416
69 1 4.91888 5.23745 10.3909
37 1 5.70489 3.44975 11.7278
27 1 4.30265 3.06576 9.26423
47 1 5.11804 7.68924 2.34538
82 1 4.64505 8.65398 1.26956
92 1 4.93456 8.28002 3.6818
55 1 5.85778 7.00499 5.53622
73 1 4.12973 7.72944 8.54218
62 1 5.47719 7.51695 8.07012
61 1 5.7623 8.12013 6.83117
65 1 3.13896 6.73876 8.44575
72 1 5.39273 6.47405 10.0607
81 1 5.46564 7.64559 10.9657
102 1 4.29159 9.00031 9.2077
88 1 3.58921 11.4141 1.91215
85 1 3.15012 10.8154 0.519578
91 1 5.7665 9.55942 1.05418
90 1 3.43781 9.11055 0.740177
87 1 3.31096 10.9714 3.37952
94 1 5.52793 11.8129 5.36076
20 1 3.23114 11.6178 4.65653
97 1 5.53535 10.3135 5.26817
95 1 5.69776 9.66188 3.99662
93 1 5.44858 9.71425 6.58105
100 1 5.2628 10.5924 7.76229
101 1 5.44559 9.74542 8.88522
106 1 4.7156 11.9199 8.21445
33 1 3.44756 11.8752 9.00466
98 1 3.25051 11.0161 10.0833
99 1 3.10914 9.64517 9.91587
103 1 3.29598 11.7446 11.4811
86 1 5.94525 9.99773 11.851
114 1 8.63761 1.91575 0.445348
2 1 6.36367 1.23577 2.65571
15 1 6.81302 0.121313 5.00078
19 1 6.95289 0.674739 3.6947
121 1 8.17747 0.0141007 5.78066
129 1 8.18109 0.264724 9.54066
130 1 8.06586 2.57546 11.5457
137 1 6.76385 0.431765 9.90602
134 1 6.68835 2.74791 11.0341
147 1 7.93298 4.56105 2.36457
141 1 6.60733 4.54977 3.27956
150 1 8.24235 3.67485 4.94734
156 1 6.83791 4.19187 4.68873
151 1 8.58874 5.2143 6.97934
166 1 7.51307 4.54604 7.73629
23 1 6.27686 4.11901 6.97025
165 1 8.67107 4.45333 9.87889
35 1 6.68291 3.06 9.49815
167 1 7.57083 4.07211 9.07978
171 1 7.94198 8.45008 1.50409
140 1 7.56215 7.75028 0.282718
142 1 8.28905 7.4821 2.64811
145 1 6.82459 6.5417 0.803614
49 1 6.03244 6.54243 2.3111
144 1 7.19379 6.99532 3.33803
148 1 7.08919 6.93082 4.78729
154 1 8.35045 7.03409 5.4334
153 1 8.37883 6.61088 6.7368
162 1 8.56132 7.62563 7.71854
184 1 8.39199 8.99061 7.5425
188 1 7.83354 8.3381 11.1585
160 1 7.58557 7.24952 9.81516
74 1 6.37763 6.95425 9.10059
110 1 6.47173 9.00247 10.8462
159 1 8.92482 6.98105 9.07794
169 1 6.89358 9.41546 1.83048
174 1 8.07392 10.7272 3.41521
170 1 6.88703 10.0079 3.18678
177 1 8.92231 9.66787 6.39636
178 1 8.83225 11.0459 6.43988
180 1 7.87957 9.7605 8.62146
181 1 8.36502 11.2939 8.75603
104 1 6.78837 9.52334 9.50316
191 1 9.00685 9.51312 10.9686
115 1 10.7632 1.4867 2.12135
112 1 9.71265 1.5195 1.0483
111 1 10.1934 2.03265 3.32266
126 1 11.18 0.157924 4.48443
120 1 10.104 1.11353 4.40521
123 1 9.10562 1.04385 5.34413
127 1 10.1762 0.682333 7.8807
189 1 11.5102 0.221474 7.29894
131 1 9.46189 1.3422 8.98357
135 1 9.96122 2.431 9.83855
119 1 10.0009 4.73988 1.03741
117 1 11.2627 4.51727 1.7114
139 1 9.09512 5.38995 1.91757
157 1 11.1877 5.60162 3.88762
124 1 9.68252 3.75064 4.98301
128 1 10.3947 3.338 3.7914
146 1 11.1419 4.39357 3.23541
161 1 10.4378 5.03267 8.47278
155 1 9.96432 4.84623 7.13215
122 1 11.8846 3.81384 6.29913
125 1 10.5538 4.04911 6.08215
133 1 11.5883 4.36143 8.93286
163 1 9.42009 5.54354 9.28045
136 1 9.19111 3.41371 10.7907
113 1 9.60872 4.32202 11.9845
132 1 11.38 2.98711 9.64599
143 1 9.34579 6.51193 2.66532
168 1 11.3438 7.9478 0.70488
149 1 9.76609 7.52465 5.20266
138 1 10.1973 6.63653 3.6733
175 1 9.60466 9.02526 5.27995
152 1 10.9652 7.15308 6.19023
59 1 12.0846 6.62922 6.72888
158 1 11.0611 7.49654 10.4948
164 1 10.2641 7.91723 9.34422
79 1 10.8234 7.43275 11.8225
172 1 10.3793 10.1059 4.40963
173 1 11.2806 11.0459 4.8651
179 1 9.36543 10.5374 3.55215
176 1 12.0374 10.6968 5.91799
182 1 11.3943 9.8837 8.12824
186 1 11.5432 10.9421 7.24804
185 1 9.36656 11.6529 7.71678
183 1 10.4865 9.30939 9.00004
187 1 10.1224 9.92791 10.2596
190 1 10.5841 11.2792 10.4171
105 1 11.6013 12.0987 10.0936
ITEM: TIMESTEP
3000
ITEM: NUMBER OF ATOMS
191
ITEM: BOX BOUNDS pp pp pp
-2.3126570146116524e-01 1.2231265701461158e+01
-2.3126570146116524e-01 1.2231265701461158e+01
-2.3126570146116524e-01 1.2231265701461158e+01
ITEM: ATOMS id type x y z
4 1 1.77783 2.93659 1.13065
12 1 1.04332 0.536786 4.97504
118 1 -0.151845 0.737621 4.07348
17 1 2.435 2.17966 6.45301
32 1 1.3982 0.61374 8.58726
11 1 0.598266 0.689055 7.39011
13 1 1.27597 1.3036 6.29823
31 1 2.8174 0.612008 8.7998
28 1 0.516045 0.617514 9.73595
38 1 2.50847 1.90518 10.9091
30 1 1.21516 2.56511 10.8334
29 1 0.194351 2.0818 10.0876
7 1 0.166286 4.55378 1.31263
6 1 0.965451 3.70385 0.448073
45 1 0.955162 5.51407 2.01536
14 1 2.16352 3.63214 6.85279
22 1 0.640835 3.8458 7.02352
63 1 0.430933 4.61989 8.31709
34 1 1.23715 3.74793 11.5041
64 1 1.36592 4.86261 10.7805
66 1 1.61395 4.68461 9.1687
39 1 0.361764 8.60301 0.634873
43 1 2.55479 7.97234 0.266068
42 1 1.48469 8.05706 1.22202
41 1 1.67223 7.66588 2.51886
54 1 2.28207 6.5389 5.48442
50 1 1.93891 8.58524 3.6383
52 1 0.808894 6.20372 5.33692
60 1 2.40752 7.86833 4.83517
40 1 1.01071 6.50439 2.95475
53 1 0.197807 6.29358 4.10009
108 1 1.21925 8.36693 8.69068
67 1 1.45765 7.01017 8.50039
71 1 0.49224 6.12741 7.77891
59 1 -0.0481698 6.41547 6.52149
77 1 1.56959 6.10761 11.3733
76 1 1.78808 7.49779 11.513
75 1 1.257 8.6621 10.8655
89 1 1.43437 10.5236 0.515251
84 1 1.16974 10.6612 1.99196
80 1 0.797687 9.5829 -0.398799
96 1 1.0663 10.7263 5.5313
21 1 1.78725 11.7522 4.97168
83 1 2.09093 10.1426 3.13446
109 1 0.118908 8.90677 7.98687
107 1 1.91617 9.0208 9.71233
1 1 3.73094 1.78424 2.03923
3 1 5.01377 1.5665 2.39822
16 1 4.11339 0.00641904 5.34603
18 1 3.74326 1.59729 6.01963
2 1 5.84188 1.59229 3.43873
10 1 4.98587 2.19714 6.26736
24 1 5.49464 2.61195 8.6854
25 1 3.27516 1.81657 9.5151
36 1 2.77146 0.723369 11.6639
27 1 4.10296 2.93153 9.12465
48 1 4.61794 4.60507 0.317396
8 1 3.70281 4.09814 2.31927
46 1 4.50526 4.98501 1.59633
44 1 5.4948 5.55162 2.311
5 1 2.94997 2.86734 1.80793
56 1 4.70055 5.76086 5.59087
58 1 5.64807 4.7727 5.37579
51 1 3.33712 5.65166 5.94575
70 1 2.99357 5.10068 8.55313
57 1 2.94742 4.70353 7.11625
9 1 5.48602 3.03243 7.19526
78 1 4.96252 3.929 11.6375
68 1 3.94892 4.32912 9.39951
69 1 4.89004 4.81635 10.4911
37 1 5.74181 2.83677 11.7438
72 1 5.86756 5.88842 10.2104
47 1 4.85382 8.09342 2.25592
82 1 4.689 8.89537 1.14465
49 1 5.59778 6.98098 2.524
90 1 3.47236 9.03867 0.226075
55 1 5.38563 7.09629 5.50236
92 1 4.73205 8.98881 3.35503
73 1 4.00295 7.5082 8.76743
62 1 5.20285 7.26767 7.99887
61 1 5.29552 8.01489 6.77368
65 1 2.83853 6.64884 8.56515
102 1 4.2711 8.80181 9.56409
88 1 3.76684 11.295 1.7989
91 1 5.88401 9.78613 0.761939
85 1 3.00458 10.7004 0.359202
97 1 5.48189 10.2206 5.42821
94 1 5.41032 11.6978 5.49481
20 1 3.12012 11.7969 4.40364
87 1 3.20003 11.0456 3.18112
95 1 5.61036 9.98554 3.872
93 1 5.45529 9.48118 6.81857
100 1 5.34393 10.2969 8.0094
106 1 5.11896 11.6056 8.68873
98 1 3.37269 11.0855 10.4084
99 1 3.04578 9.66069 9.98505
101 1 5.58698 9.40021 9.11181
103 1 3.24504 11.7366 11.693
33 1 3.65645 11.8262 9.12207
114 1 8.93086 1.85512 0.243788
123 1 8.79663 1.02783 5.25234
19 1 6.34861 1.07585 4.50567
15 1 6.61321 -0.0225023 5.31681
137 1 7.18303 0.46612 9.82012
130 1 8.25352 2.46916 11.4783
26 1 6.02038 0.0476359 9.26505
129 1 8.59934 0.0772792 9.76991
134 1 6.90928 2.63901 11.0063
147 1 7.74379 4.68872 2.03294
139 1 8.93113 5.43989 1.78974
156 1 6.64251 4.55939 4.30625
150 1 8.04384 3.96366 4.87743
141 1 6.55654 4.78578 2.95253
151 1 8.42365 5.22853 7.01946
166 1 7.37285 4.4459 7.59279
23 1 6.21061 4.2513 6.91371
167 1 7.52756 3.99001 8.98672
165 1 8.59404 4.44199 9.89507
35 1 6.61338 3.02148 9.5129
171 1 7.78351 8.53785 1.55067
140 1 7.92947 8.20073 0.23554
142 1 7.92999 7.71128 2.68308
144 1 6.64168 7.38208 3.42761
148 1 6.65881 7.13719 4.86816
154 1 7.88606 7.06697 5.67472
153 1 8.38586 6.6241 6.82533
162 1 8.75165 7.60539 7.77916
184 1 8.62936 9.05231 7.64574
159 1 9.15042 7.15482 9.1333
81 1 6.67344 6.21918 11.4244
160 1 7.72166 7.1719 9.68176
145 1 7.51874 6.90127 12.1934
74 1 6.4556 6.70367 9.11528
169 1 6.90463 9.74448 1.81071
174 1 7.82364 10.943 3.48791
170 1 6.78809 10.1579 3.10418
121 1 7.99175 12.3617 5.77233
181 1 8.76013 11.3536 8.79768
178 1 8.79397 11.3389 6.45054
180 1 8.06449 10.1494 8.58622
177 1 9.25134 9.81883 6.4912
104 1 7.01065 9.63011 9.51794
110 1 7.22519 9.89128 10.98
86 1 6.18265 10.0971 11.9196
188 1 8.39397 9.10981 11.6394
115 1 10.8889 1.64471 2.17915
112 1 10.0852 1.4853 0.987429
116 1 12.2986 1.54839 2.90202
111 1 10.1527 2.15282 3.43876
120 1 9.95468 1.23759 4.47161
126 1 11.063 0.208555 4.61324
127 1 10.3991 0.443074 8.24604
189 1 11.714 0.0431634 7.66321
135 1 10.2484 2.28968 9.97471
131 1 9.70709 1.12536 9.41449
132 1 11.5714 2.75527 9.74333
105 1 12.2571 -0.307977 10.3873
119 1 10.1061 4.75912 0.99917
117 1 11.2638 4.58202 1.65053
157 1 11.3066 5.89306 3.81758
124 1 9.59431 3.92006 4.90969
128 1 10.1786 3.5594 3.71745
146 1 11.1232 4.56979 3.1709
161 1 10.4285 4.71251 8.40725
155 1 9.6817 4.53904 7.268
133 1 11.6698 4.06889 8.88626
122 1 11.8413 3.81781 6.35813
125 1 10.4031 3.84902 6.27037
163 1 9.42454 5.46919 9.31953
136 1 9.31395 3.46549 11.0001
113 1 9.76409 4.36797 12.2143
168 1 11.6893 7.80149 0.543062
143 1 9.04502 6.79832 2.75538
149 1 10.3918 7.72756 4.96158
138 1 10.0804 6.8941 3.82352
152 1 11.3158 7.33459 6.05531
158 1 10.711 7.2611 10.783
164 1 10.2895 7.90869 9.62642
79 1 10.8749 7.36715 12.0798
172 1 10.2805 10.4667 4.34872
173 1 11.0979 11.3495 4.96732
176 1 12.1722 10.8587 5.77874
175 1 9.91334 9.19269 5.21955
179 1 9.10653 10.8128 3.74903
182 1 11.6203 9.8103 8.15971
186 1 11.746 11.0444 7.30497
185 1 9.40923 11.9557 7.69706
187 1 10.5637 10.0271 10.3794
190 1 11.3668 11.2303 10.5546
191 1 9.64631 9.65818 11.4626
183 1 10.7476 9.17706 9.24052
ITEM: TIMESTEP
4000
ITEM: NUMBER OF ATOMS
191
ITEM: BOX BOUNDS pp pp pp
-1.8378010327110236e-01 1.2183780103271120e+01
-1.8378010327110236e-01 1.2183780103271120e+01
-1.8378010327110236e-01 1.2183780103271120e+01
ITEM: ATOMS id type x y z
5 1 2.79396 2.85336 2.10662
116 1 -0.101816 1.05371 2.31338
12 1 1.10924 0.560035 4.98157
118 1 0.0315708 0.611273 3.98802
17 1 2.43432 2.00488 6.39503
32 1 1.29538 0.556787 8.59781
11 1 0.588297 0.774502 7.36152
31 1 2.74398 0.567049 8.86344
13 1 1.16175 1.25993 6.20434
28 1 0.461891 0.862409 9.71583
38 1 2.6313 1.69898 10.7873
30 1 1.53965 2.65639 10.8885
29 1 0.321073 2.31783 10.0192
36 1 2.77219 0.500868 11.5407
7 1 0.102904 4.86635 1.20877
6 1 0.925327 3.83597 0.563823
45 1 0.784596 5.73489 2.03034
4 1 1.67168 3.01552 1.44529
14 1 2.12159 3.39088 6.85369
22 1 0.742723 3.84666 7.02417
63 1 0.43307 4.78459 8.2174
34 1 1.37587 3.89375 11.6024
64 1 1.41617 4.89067 10.6966
66 1 1.64964 4.71674 9.30894
39 1 0.129057 8.41731 0.858987
43 1 2.36188 7.96645 0.68866
42 1 1.28744 7.92044 1.77088
54 1 2.47036 6.62147 5.4708
50 1 2.15354 8.65883 3.86207
52 1 0.96058 6.31179 5.51965
60 1 2.74201 8.08867 5.06905
40 1 1.12473 6.3173 3.26122
53 1 0.347356 5.9732 4.30269
41 1 1.58061 7.71922 3.02537
108 1 1.19127 8.41238 8.79067
67 1 1.549 7.13972 8.43421
71 1 0.617427 6.30053 7.78823
59 1 0.0476915 6.7659 6.57645
109 1 0.146093 9.00039 8.18086
65 1 2.93381 6.63811 8.55778
77 1 1.73837 6.20174 11.344
76 1 1.92078 7.5025 11.8251
75 1 1.2716 8.65408 11.1894
107 1 1.80942 8.93078 9.92681
89 1 1.34133 10.2544 0.894926
84 1 1.20405 10.4699 2.25304
80 1 0.733001 9.38099 -0.0463198
85 1 2.6862 10.5782 0.591274
96 1 1.16166 10.8244 5.81822
21 1 1.91661 11.7612 5.09722
83 1 2.02674 9.96299 3.20606
105 1 0.0841083 12.175 10.4743
1 1 3.54112 1.6812 2.02733
3 1 4.82577 1.45514 1.98958
2 1 5.7912 1.19598 2.9156
16 1 4.12615 0.0915417 5.46722
10 1 4.81173 2.04294 6.53879
24 1 5.64108 2.84566 8.74396
9 1 5.66168 2.90847 7.32139
18 1 3.74471 1.3872 6.07186
25 1 3.41142 1.72863 9.60118
48 1 4.35923 4.87097 0.586093
46 1 4.20886 4.88063 2.02631
8 1 3.33677 3.96748 2.69295
44 1 5.37289 5.4143 2.55893
56 1 4.86004 5.66936 5.6135
58 1 5.99539 4.56718 5.50112
70 1 3.0256 5.08195 8.61261
57 1 2.98721 4.51323 7.1731
51 1 3.33493 5.595 6.08375
78 1 4.96657 4.36287 11.8222
68 1 3.97617 4.34468 9.47421
69 1 4.7432 5.07591 10.5261
27 1 4.35133 2.94834 9.33231
37 1 5.95024 3.4101 11.9403
47 1 4.75105 7.87971 2.31972
49 1 5.62076 6.79949 2.5253
82 1 4.58993 8.63288 1.18653
90 1 3.32757 8.93103 0.706427
55 1 5.7024 6.98738 5.56596
92 1 4.80698 8.73152 3.45381
73 1 3.93709 7.65725 8.64348
62 1 5.34669 7.44391 8.08767
61 1 5.49664 8.04185 6.6003
102 1 4.11571 8.8882 9.38387
72 1 5.56872 6.16644 10.2059
88 1 3.41831 11.2163 1.88051
91 1 5.64969 9.56202 0.921446
97 1 5.49451 10.3396 5.33725
94 1 5.4569 11.7397 5.46801
95 1 5.79357 9.74619 4.04793
87 1 3.07099 11.0625 3.28665
20 1 3.1872 11.8401 4.43798
93 1 5.48747 9.60706 6.60957
100 1 5.27194 10.3148 7.86813
106 1 4.87372 11.7112 8.39589
101 1 5.37038 9.55476 9.11662
33 1 3.61569 11.8208 9.05578
98 1 3.19823 10.8585 10.2124
99 1 2.95074 9.55563 9.76821
103 1 2.97595 11.457 11.6131
114 1 9.0675 2.22131 0.33725
15 1 6.7236 0.0052143 4.99577
19 1 6.59996 0.750812 3.85159
123 1 8.9613 0.629075 4.88657
26 1 6.03184 0.179451 8.83575
129 1 8.54622 0.338469 9.53076
130 1 8.36566 2.77205 11.612
137 1 7.25812 0.756801 9.31902
147 1 7.73494 4.82517 2.21509
139 1 9.01153 5.3978 1.75558
156 1 6.96227 4.32095 4.49404
150 1 8.24969 3.89543 4.60054
141 1 6.6034 4.69733 3.08349
151 1 8.55191 5.24598 7.04165
166 1 7.5838 4.34027 7.60209
23 1 6.47141 3.95871 6.73576
167 1 7.71447 3.87824 8.98423
165 1 8.6517 4.49181 9.86163
35 1 6.74578 3.05111 9.64745
134 1 7.00359 3.00443 11.1275
171 1 7.82986 8.47577 1.58654
140 1 8.10469 8.23629 0.0994359
142 1 8.04209 7.57813 2.64979
144 1 6.83761 7.0864 3.34166
148 1 6.82117 6.94654 4.76707
154 1 7.96253 6.95886 5.38963
153 1 8.42687 6.63507 6.64182
162 1 8.65259 7.77079 7.50208
159 1 8.99297 7.24363 8.9777
160 1 7.48884 7.18274 9.37775
81 1 6.39808 6.55815 11.373
74 1 6.17875 6.78755 9.12239
145 1 7.44719 7.00159 12.011
169 1 6.76629 9.45234 1.80796
174 1 8.13273 10.5843 3.24619
170 1 6.80975 10.0743 3.00814
121 1 8.07899 12.0164 5.29166
181 1 8.47139 11.3763 8.70815
178 1 8.63146 11.2616 6.42174
180 1 7.86028 9.96143 8.61697
177 1 8.84819 9.79577 6.26558
184 1 8.39002 9.17228 7.45532
104 1 6.63754 9.58922 9.62835
110 1 6.91591 9.69022 11.0239
188 1 8.22391 9.36067 11.471
86 1 6.04176 9.9819 12.0237
115 1 10.958 1.6365 2.14524
112 1 10.1472 1.81723 1.06661
111 1 10.3641 1.98466 3.40309
120 1 10.124 1.03041 4.23478
126 1 11.1236 0.125609 4.49177
127 1 10.3498 0.483161 8.0517
189 1 11.6434 0.0113197 7.57923
135 1 10.2162 2.688 9.95382
131 1 9.78033 1.30292 9.26804
119 1 9.99723 4.83588 1.05456
117 1 11.1453 4.53723 1.74848
157 1 11.2715 5.78981 3.92369
124 1 9.63078 3.7498 4.86433
128 1 10.5283 3.435 3.79149
146 1 11.0462 4.68332 3.13418
161 1 10.4288 5.18865 8.4714
155 1 9.92418 4.78821 7.17164
133 1 11.532 4.44202 8.93139
122 1 11.8057 3.6769 6.40504
125 1 10.469 3.91932 6.1659
163 1 9.3669 5.65142 9.33432
136 1 9.35703 3.65215 10.8656
132 1 11.5671 3.1908 9.7127
113 1 10.0586 4.76001 11.9973
168 1 11.4167 7.66307 0.427943
143 1 9.04366 6.53436 2.73813
149 1 10.3375 7.82405 5.12187
138 1 10.1899 6.83161 3.87541
175 1 9.5924 9.07671 5.25858
152 1 11.4518 7.74589 6.11996
158 1 10.8825 7.43056 10.3111
164 1 10.2244 7.97428 9.29793
79 1 11.258 7.04759 11.5216
172 1 10.1989 10.2821 4.57454
173 1 11.2464 11.1224 4.8765
176 1 12.1504 10.8852 5.93927
179 1 9.37243 10.6623 3.58901
182 1 11.4184 9.81803 8.11975
186 1 11.5547 11.0237 7.28925
185 1 9.28972 11.8209 7.49676
187 1 10.4722 10.298 10.3341
190 1 11.5684 11.0964 10.5588
191 1 9.49928 9.81894 11.1942
183 1 10.5263 9.46003 9.12048
ITEM: TIMESTEP
5000
ITEM: NUMBER OF ATOMS
191
ITEM: BOX BOUNDS pp pp pp
-8.9658934475297880e-02 1.2089658934475301e+01
-8.9658934475297880e-02 1.2089658934475301e+01
-8.9658934475297880e-02 1.2089658934475301e+01
ITEM: ATOMS id type x y z
4 1 1.68455 3.11586 1.59476
116 1 -0.0252215 1.34892 2.67809
12 1 1.0683 0.706186 4.78155
118 1 0.109514 0.712377 3.79776
11 1 0.57979 0.914399 7.27213
32 1 1.27371 0.70507 8.48393
17 1 2.5636 2.26235 6.26543
31 1 2.68728 0.859315 8.6903
13 1 1.1174 1.52788 5.97879
28 1 0.442283 0.78657 9.55672
38 1 2.58666 1.9844 10.8516
30 1 1.32624 2.60963 10.9083
29 1 0.269657 2.1368 9.96312
36 1 3.05067 0.858829 11.6336
7 1 0.222524 4.77773 1.27526
6 1 0.934921 3.82531 0.585396
45 1 0.947963 5.83608 1.92642
14 1 2.25421 3.61771 6.66344
22 1 0.769255 3.83113 7.07656
63 1 0.633393 4.82984 8.32998
34 1 1.23992 3.8742 11.5121
64 1 1.63769 5.06028 10.7547
66 1 1.75012 4.99003 9.44393
39 1 0.191197 8.86295 0.900497
43 1 2.43748 8.22599 0.613447
42 1 1.26644 8.28863 1.52088
41 1 1.51365 7.91533 2.87118
54 1 2.6646 6.86712 5.37634
50 1 2.19063 8.8109 3.65717
52 1 1.03506 6.67609 5.24633
53 1 0.366228 6.16862 4.18989
40 1 1.04806 6.59868 3.01562
108 1 1.37063 8.44273 8.49633
67 1 1.79649 7.10027 8.17874
71 1 0.73186 6.16711 7.71443
59 1 0.119267 6.55094 6.50222
109 1 0.158904 8.95306 7.90171
77 1 1.82609 6.29637 11.3372
76 1 1.83131 7.64484 11.6939
75 1 1.13268 9.12967 10.9073
89 1 1.46518 10.7313 0.634916
84 1 1.28892 10.5342 2.07512
80 1 0.713633 9.74828 -0.164807
96 1 1.06836 10.5235 5.58548
21 1 1.78454 11.6294 4.93483
83 1 2.25376 10.0304 3.03126
107 1 1.79266 9.27953 9.66496
105 1 0.0887488 11.9204 10.4759
1 1 3.77076 1.64599 1.80768
3 1 4.65135 0.518724 1.75415
2 1 5.75722 0.728958 2.53385
5 1 3.01763 2.75712 2.15154
16 1 4.13133 0.121345 5.21993
18 1 3.8169 1.43358 6.00386
10 1 4.90754 2.11004 6.40808
9 1 5.72057 2.99423 7.21237
24 1 5.65986 2.7564 8.64037
25 1 3.20102 2.13101 9.34453
48 1 4.39855 4.81804 0.711722
46 1 4.39387 4.83992 2.12988
44 1 5.55019 5.38596 2.85699
8 1 3.57667 3.84782 2.7447
56 1 5.21898 5.91286 5.61502
51 1 3.81695 5.77199 5.94387
70 1 3.09038 5.15705 8.54822
57 1 3.23439 4.7281 7.00704
78 1 4.99799 4.26457 11.7086
68 1 4.18715 4.47293 9.39005
69 1 4.86489 4.99602 10.5314
37 1 5.63877 3.0166 11.7514
27 1 4.24855 3.03055 9.08482
47 1 4.70944 7.79282 2.73543
82 1 4.49793 8.66113 1.59854
49 1 5.77378 6.76276 2.93685
60 1 3.20151 8.3572 4.48143
92 1 4.55137 8.58647 3.99055
55 1 5.98263 7.08994 5.74799
73 1 4.01182 7.66099 8.62084
62 1 5.35814 7.38372 8.09652
61 1 5.73498 7.90654 6.8157
65 1 3.05193 6.6541 8.45312
102 1 4.02591 8.89995 9.42123
72 1 5.75519 6.03617 10.3816
88 1 3.86112 11.4749 1.83642
91 1 5.73829 9.37746 1.13463
85 1 3.17336 10.6739 0.609704
90 1 3.44486 9.15755 0.801752
97 1 5.28445 10.2397 5.45434
94 1 5.39392 11.6052 5.39603
95 1 5.64974 9.54903 4.18396
87 1 3.37343 11.0183 3.2605
20 1 3.14227 11.6897 4.45723
93 1 5.51688 9.5101 6.71529
100 1 5.21461 10.4313 7.88126
106 1 4.90409 11.7177 8.25019
33 1 3.64604 12.0523 8.91945
98 1 3.36376 11.1071 10.0125
99 1 3.06772 9.74845 9.8001
103 1 3.23557 11.5431 11.4427
101 1 5.48534 9.63431 9.20075
114 1 8.87298 1.7387 0.362556
123 1 8.81553 0.971168 5.02899
19 1 6.6091 0.533923 3.56132
15 1 6.65942 -0.00505932 4.86554
26 1 5.91005 0.374711 8.5742
129 1 8.36481 0.259167 9.41422
130 1 8.24081 2.5265 11.4163
137 1 7.0136 0.699269 9.2643
134 1 6.90688 2.64104 10.9464
147 1 7.8073 4.55941 2.26241
139 1 8.97598 5.40342 1.76002
156 1 6.89335 4.1243 4.50653
150 1 8.04746 3.44696 4.85804
141 1 6.72416 4.44073 3.1554
58 1 6.14596 4.75052 5.64843
151 1 8.54525 5.36528 7.06754
166 1 7.61072 4.49973 7.55158
23 1 6.48018 4.10898 6.81038
165 1 8.52988 4.68205 9.97154
35 1 6.82426 2.99078 9.51585
167 1 7.61511 4.08631 8.98497
171 1 7.70188 8.23354 1.5529
140 1 8.24472 7.8999 0.265144
142 1 8.02668 7.36554 2.69911
144 1 6.97847 7.20963 3.58922
148 1 7.07766 7.10822 4.95767
154 1 8.3434 7.13072 5.47765
153 1 8.4455 6.74623 6.79014
162 1 8.82541 7.70314 7.74334
160 1 7.5475 7.17751 9.45394
81 1 6.57614 6.23906 11.6002
74 1 6.26398 6.69486 9.23897
188 1 8.34566 9.04352 11.6816
145 1 7.76892 6.71975 11.9263
169 1 6.84843 9.19226 1.93577
174 1 7.80775 10.5826 3.5059
170 1 6.6674 9.90071 3.22687
121 1 7.9175 12.135 5.5277
181 1 8.60166 11.2438 8.58051
178 1 8.56412 11.0744 6.27004
180 1 7.88565 9.9354 8.58867
177 1 8.84681 9.62643 6.30439
184 1 8.4535 8.99803 7.5054
104 1 6.92116 9.70441 9.7208
110 1 7.16085 9.46378 11.0848
86 1 6.08615 9.64943 11.9583
115 1 10.9897 1.75963 2.12857
112 1 9.95296 1.65005 1.20005
111 1 10.1901 2.09906 3.42974
120 1 10.018 0.995473 4.3822
126 1 11.0504 0.0175708 4.35683
127 1 10.1489 0.760916 7.75642
189 1 11.4299 0.482537 7.50213
135 1 10.1177 2.53651 9.77236
131 1 9.56862 1.2557 9.07386
119 1 9.96308 4.73507 1.02225
117 1 11.0587 4.50187 1.71722
146 1 10.9932 4.53128 3.17796
124 1 9.48195 3.7026 4.95022
128 1 10.296 3.46008 3.80974
157 1 11.2356 5.61116 3.97084
161 1 10.2698 5.08714 8.55036
155 1 9.77999 4.72085 7.25387
133 1 11.4102 4.3794 8.88441
122 1 11.658 3.55033 6.40428
125 1 10.1909 3.80195 6.18979
163 1 9.40428 5.66392 9.44016
136 1 9.22621 3.48494 10.9283
113 1 9.80847 4.25395 11.8626
132 1 11.3739 3.03734 9.43147
168 1 11.1682 8.19801 0.785321
143 1 9.11898 6.42806 2.80706
79 1 10.668 7.34426 -0.0651744
149 1 9.83001 7.4764 5.08347
138 1 10.0672 6.55664 3.85566
175 1 9.68857 9.02584 5.2306
152 1 10.9452 6.93993 6.10504
158 1 10.5998 7.44707 10.8332
164 1 10.2106 8.16402 9.64527
159 1 8.97981 7.22651 9.09356
172 1 10.0871 10.0764 4.33899
173 1 11.0513 10.9218 4.87323
179 1 9.15131 10.4153 3.35263
176 1 11.9371 10.5216 6.00577
182 1 11.3763 10.0182 8.31811
186 1 11.573 11.1023 7.28401
185 1 9.16535 11.754 7.3962
187 1 10.3025 10.3773 10.5317
190 1 11.1204 11.4064 10.9626
191 1 9.56014 9.70983 11.4847
183 1 10.5881 9.56057 9.47833
ITEM: TIMESTEP
6000
ITEM: NUMBER OF ATOMS
191
ITEM: BOX BOUNDS pp pp pp
-9.7241060174303937e-02 1.2097241060174341e+01
-9.7241060174303937e-02 1.2097241060174341e+01
-9.7241060174303937e-02 1.2097241060174341e+01
ITEM: ATOMS id type x y z
5 1 2.9055 2.75748 1.83319
4 1 1.72184 2.58851 1.11829
12 1 1.11928 0.723076 4.8452
118 1 0.121219 0.75948 3.76193
11 1 0.665322 0.834239 7.33552
32 1 1.44836 0.700895 8.61555
17 1 2.48049 2.28012 6.10379
31 1 2.91864 0.809081 8.70768
13 1 1.25985 1.41116 6.11416
28 1 0.56436 1.0167 9.73544
38 1 2.72055 1.77089 10.6863
30 1 1.61394 2.64126 10.8068
29 1 0.460802 2.38331 9.97109
36 1 2.94019 0.722821 11.6173
105 1 -0.0185529 0.0901761 10.6338
7 1 0.404834 4.50635 1.33967
6 1 0.979373 3.59907 0.558128