ITEM: TIMESTEP
1000
ITEM: NUMBER OF ATOMS
191
ITEM: BOX BOUNDS pp pp pp
0.0000000000000000e+00 1.2000000000000000e+01
0.0000000000000000e+00 1.2000000000000000e+01
0.0000000000000000e+00 1.2000000000000000e+01
ITEM: ATOMS id type x y z
12 1 1.20509 0.848646 4.8824
1 1 2.45416 2.21262 3.44646
118 1 0.0568909 0.931156 4.21542
31 1 2.7963 1.20012 8.59879
32 1 1.33362 1.11411 8.47168
11 1 0.524598 1.20419 7.34151
17 1 2.71238 2.40746 6.16634
13 1 1.38231 1.67759 6.10224
28 1 0.600435 1.06936 9.68613
29 1 0.380463 2.49177 10.0643
30 1 1.54051 2.88833 10.6729
38 1 2.76966 2.1392 10.5977
4 1 2.18611 3.42645 1.49308
6 1 1.37529 4.1638 0.681185
7 1 0.316389 4.7799 1.23673
5 1 2.72351 3.38718 2.80547
53 1 0.358511 5.83537 4.1516
14 1 2.48962 3.77126 6.47623
22 1 1.04066 4.12647 6.92577
63 1 0.861504 4.89394 8.19573
34 1 1.60511 4.1806 11.3394
64 1 1.84804 5.17285 10.4568
66 1 1.97643 4.87993 9.13738
39 1 0.181589 8.50532 0.712513
43 1 2.65505 8.15867 0.868042
42 1 1.41328 7.99508 1.5577
45 1 0.410238 6.0196 1.6437
40 1 0.607622 6.50916 2.98891
41 1 1.37971 7.70322 2.91852
54 1 2.3679 6.52629 5.21292
50 1 2.14686 8.46843 3.69532
52 1 1.04645 6.21113 5.25484
60 1 2.43505 7.90596 4.88676
59 1 0.319578 6.54721 6.41356
67 1 1.82448 7.31926 8.10585
71 1 0.824954 6.39916 7.65354
108 1 1.50378 8.72625 8.5489
75 1 1.63839 8.73584 10.9
76 1 2.39605 7.75422 11.4558
77 1 2.36185 6.3648 11.1126
89 1 1.68557 10.4378 0.778156
84 1 1.26087 10.293 2.26055
96 1 1.39937 10.5244 5.80047
21 1 1.92503 11.6793 5.0829
83 1 1.97272 9.86486 3.45811
109 1 0.460584 9.13924 7.92927
107 1 1.96788 9.23301 9.68906
80 1 0.964113 9.47731 11.8748
3 1 3.46182 1.23958 3.5408
16 1 4.12741 0.164967 5.50129
2 1 4.94593 1.47411 3.18049
9 1 5.79569 2.82726 7.153
24 1 5.70492 2.43076 8.65892
26 1 5.83625 0.933983 8.58776
10 1 5.33926 2.06308 6.16372
18 1 3.95423 1.52412 6.0336
25 1 3.47206 2.22466 9.36298
36 1 3.1563 1.05003 11.3995
48 1 4.33373 4.65548 0.709691
44 1 5.99016 5.22315 2.44868
46 1 4.83482 4.57961 2.03733
8 1 3.91788 4.06314 2.96916
58 1 5.89245 4.77236 5.62939
56 1 5.05263 5.94244 5.47293
51 1 3.61934 5.79543 5.77172
70 1 3.40603 5.25056 8.37877
57 1 3.29911 4.88631 6.83742
78 1 5.12797 4.29346 11.5245
68 1 4.40579 4.42649 9.42396
69 1 5.059 5.21573 10.3426
27 1 4.47806 3.0505 9.22505
47 1 5.19546 7.94796 2.43487
82 1 4.90455 8.78538 1.39948
92 1 5.0144 8.61295 3.70179
55 1 5.95341 7.18716 5.53858
73 1 4.19161 7.74413 8.55678
62 1 5.53684 7.49362 7.95057
65 1 3.19209 6.8109 8.4114
61 1 5.63671 8.06901 6.60218
72 1 5.55993 6.5066 10.3029
81 1 5.54413 7.76087 11.0694
88 1 3.49987 11.0428 2.1632
85 1 3.16455 10.4098 1.00517
91 1 5.91697 9.71594 1.04399
90 1 3.67653 9.11918 1.0001
94 1 5.51007 11.7138 5.47563
97 1 5.54044 10.2859 5.25334
87 1 3.11333 10.7168 3.43176
20 1 3.18504 11.8843 4.2963
95 1 5.89847 9.73487 4.04418
93 1 5.64775 9.60237 6.45837
100 1 5.39615 10.4731 7.59658
101 1 5.51693 9.71445 8.84227
106 1 4.93343 11.8978 7.96221
33 1 3.59975 11.9983 8.55921
98 1 3.50555 11.1841 9.68144
103 1 3.22428 11.7935 10.9441
99 1 3.27887 9.79207 9.59418
102 1 4.32834 9.07969 9.01661
114 1 8.60925 1.0636 0.341457
15 1 6.28686 1.03729 5.36838
19 1 6.14573 1.31933 3.9212
121 1 7.76238 0.614062 5.91285
128 1 8.88866 2.97665 3.70562
129 1 8.35478 0.18746 9.37563
130 1 8.26103 2.13424 11.4211
137 1 7.02759 0.504277 9.32774
134 1 6.96563 2.54662 10.8961
35 1 6.87822 2.8466 9.43909
147 1 8.12484 3.78741 2.81579
139 1 8.95702 4.71955 2.11283
141 1 6.86754 4.534 3.29409
150 1 8.14886 4.52859 5.47536
156 1 6.87198 4.6036 4.71775
151 1 8.27125 5.07366 6.80782
166 1 7.22697 4.60737 7.64401
23 1 6.11789 4.13615 6.99852
167 1 7.57641 4.01855 8.90824
165 1 8.33637 4.89564 9.7276
37 1 6.09022 3.28999 11.648
49 1 6.32647 6.66491 2.15676
140 1 7.99375 7.68454 0.383597
142 1 8.58072 7.38481 2.5869
145 1 6.96274 6.67636 0.681379
171 1 8.11027 8.45739 1.63405
144 1 7.31434 7.04926 3.2988
148 1 7.18411 7.1601 4.73754
154 1 8.35935 7.1502 5.53352
153 1 8.1698 6.55922 6.73473
162 1 8.58165 7.49694 7.74916
184 1 8.14193 8.93666 7.51019
188 1 7.99517 8.26872 11.0671
74 1 6.48352 6.90777 9.14608
160 1 7.81743 7.2395 9.89896
169 1 7.09657 9.53003 1.87342
174 1 7.97704 10.9841 3.56656
170 1 6.93637 10.1165 3.21665
177 1 8.34338 9.55504 6.12299
178 1 8.10362 11.1346 6.34415
180 1 7.89147 9.70405 8.60484
181 1 8.60636 10.9521 8.71045
185 1 8.91145 11.4014 7.40967
104 1 6.73251 9.58153 9.41521
110 1 6.49943 9.08283 10.8292
86 1 6.07477 10.1283 11.7812
115 1 10.3233 1.23323 2.44296
116 1 11.6482 0.993539 2.82226
112 1 9.70433 1.22206 1.2498
111 1 9.4857 1.66562 3.53701
126 1 10.9251 0.207048 4.75638
120 1 9.76984 1.11383 4.82804
123 1 9.07273 1.35593 5.95414
127 1 9.85358 0.871564 7.35898
189 1 11.3665 0.497339 7.24559
131 1 9.26943 1.27343 8.8753
135 1 9.92736 2.45712 9.72437
136 1 9.31994 2.91918 10.9834
105 1 11.8296 0.0101488 10.1355
119 1 10.0568 4.12402 1.1601
117 1 11.2913 4.10232 1.87838
157 1 11.3328 4.9189 4.17809
124 1 9.18021 3.70881 5.01453
146 1 11.3855 3.97031 3.30822
138 1 10.2186 5.74187 3.89366
161 1 10.2777 4.94223 8.31128
155 1 9.72347 4.77316 7.05922
133 1 11.4486 4.36918 8.8939
122 1 11.7791 3.7662 6.22739
125 1 10.4313 4.01175 6.05778
163 1 9.44619 5.61201 9.18789
113 1 9.86272 3.82653 11.855
132 1 11.2015 3.12199 9.46298
143 1 9.41135 6.11047 2.82495
168 1 11.139 7.60473 0.563201
149 1 9.69535 7.6531 5.41856
152 1 10.827 7.13612 6.19421
159 1 9.168 7.09184 8.9772
158 1 11.2905 7.02504 10.2119
164 1 10.4181 7.84684 9.49228
79 1 11.2299 6.74242 11.5198
172 1 10.0074 10.0659 4.56232
173 1 11.0291 10.7553 5.07982
175 1 9.42791 9.05859 5.30838
179 1 9.28849 10.6904 3.58403
182 1 11.2861 9.8532 8.11419
186 1 11.4828 11.032 7.29613
176 1 11.9937 10.5963 6.03074
187 1 10.2157 9.88624 10.5578
190 1 10.9942 11.1135 10.7664
183 1 10.5117 9.3033 9.2034
191 1 9.03 9.33326 11.045
ITEM: TIMESTEP
2000
ITEM: NUMBER OF ATOMS
191
ITEM: BOX BOUNDS pp pp pp
-1.1087278965736133e-01 1.2110872789657400e+01
-1.1087278965736133e-01 1.2110872789657400e+01
-1.1087278965736133e-01 1.2110872789657400e+01
ITEM: ATOMS id type x y z
4 1 1.82014 2.83838 1.37246
5 1 2.90056 2.78635 2.30937
12 1 1.19152 0.687157 4.78962
118 1 0.192172 0.385613 3.85633
13 1 1.22828 1.40889 6.07069
31 1 2.7494 0.93895 8.67312
32 1 1.19906 0.763335 8.53375
11 1 0.522763 0.848194 7.28903
17 1 2.51545 2.14222 6.14939
28 1 0.203375 0.963587 9.57162
38 1 2.64622 2.03006 10.7151
30 1 1.39747 2.66225 10.905
29 1 0.259164 2.27995 10.1795
7 1 0.388726 4.84183 1.41356
6 1 1.15254 3.82635 0.708617
45 1 1.03883 5.82844 2.03166
53 1 0.341778 6.08103 4.305
14 1 2.18256 3.57899 6.55132
22 1 0.8167 3.87424 7.0521
63 1 0.713251 4.67453 8.37827
34 1 1.40574 3.90063 11.5302
64 1 1.83419 5.08386 10.5766
66 1 1.87207 4.62003 9.14576
39 1 0.273348 8.69616 0.905827
43 1 2.44545 8.05883 0.669706
42 1 1.37736 8.123 1.70111
54 1 2.39913 6.66827 5.60483
50 1 2.18352 8.67482 3.88528
52 1 0.916088 6.37169 5.69841
40 1 0.963012 6.52176 3.20123
60 1 2.65825 7.97097 5.06449
41 1 1.60617 7.7316 2.97933
108 1 1.34509 8.45216 8.65322
67 1 1.73502 7.10494 8.17132
71 1 0.653648 6.19326 7.88566
59 1 -0.0613847 6.56773 6.67253
109 1 0.181925 9.00188 8.01689
77 1 1.9598 6.26569 11.2358
76 1 1.8524 7.67046 11.6345
75 1 1.25032 8.91291 11.1193
89 1 1.55691 10.6818 0.670636
84 1 1.3828 10.6176 2.22943
80 1 0.74097 9.74188 0.0269953
83 1 2.22413 9.98535 3.33344
21 1 1.91208 11.6853 5.03742
96 1 1.27523 10.5613 5.58425
176 1 -0.0864695 10.6415 5.96297
107 1 1.82767 9.1848 9.80229
3 1 5.10479 1.25329 2.02531
1 1 3.84569 1.77717 2.28472
16 1 4.2017 0.0321445 5.4478
18 1 3.87167 1.47151 5.89666
9 1 5.62147 2.88496 7.25234
24 1 5.61663 2.39083 8.63656
10 1 4.9853 2.08737 6.28721
26 1 5.847 0.828919 8.95074
25 1 3.15536 2.14209 9.44135
36 1 2.87893 0.897077 11.6081
48 1 4.12753 4.97059 0.649463
44 1 5.53303 5.20729 2.69549
46 1 4.43327 4.76625 1.96524
8 1 3.39965 4.04427 2.69018
56 1 5.03483 5.6958 5.62143
58 1 5.97143 4.47339 5.73632
70 1 3.10981 5.14578 8.39793
57 1 3.16262 4.70244 6.86805
51 1 3.64098 5.86488 5.92287
78 1 4.77745 4.67186 11.5973
68 1 4.22537 4.52598 9.2692
69 1 4.79817 5.27137 10.3308
37 1 5.62934 3.45857 11.6491
27 1 4.28265 2.96467 9.22557
47 1 5.1232 7.82397 2.20062
82 1 4.71014 8.76524 1.34319
92 1 4.97216 8.28823 3.6314
55 1 5.78246 6.99478 5.50891
73 1 4.03858 7.77445 8.53991
62 1 5.49256 7.44493 8.03758
65 1 3.08772 6.72884 8.35404
102 1 4.21385 8.97364 9.11364
61 1 5.67611 7.96956 6.68718
72 1 5.41394 6.4662 9.98378
81 1 5.54963 7.54691 10.9658
88 1 3.57008 11.4118 2.01024
91 1 5.77835 9.58735 1.03768
85 1 3.0726 10.8733 0.452732
90 1 3.38498 9.11634 0.732774
87 1 3.32487 10.9939 3.36762
94 1 5.54952 11.7423 5.39372
20 1 3.26156 11.6778 4.55975
97 1 5.53948 10.2872 5.22761
95 1 5.63924 9.61644 4.04922
93 1 5.48172 9.53153 6.50726
100 1 5.32506 10.7475 7.93269
101 1 5.42541 9.79275 8.88675
33 1 3.59198 12.0886 8.96729
106 1 4.83512 12.039 8.31429
98 1 3.25428 11.0883 10.0963
103 1 3.26331 11.7408 11.4673
99 1 3.1482 9.62551 9.87019
86 1 6.00355 10.0518 11.8847
114 1 8.62642 1.92014 0.393484
2 1 6.32454 1.13089 2.67883
15 1 6.9254 0.0880738 5.05724
19 1 6.95648 0.535873 3.67972
121 1 8.19668 0.00511135 5.76915
129 1 8.15454 0.302959 9.54284
130 1 8.1149 2.5765 11.4602
137 1 6.78203 0.479395 9.98931
134 1 6.72273 2.80635 11.0427
147 1 7.88127 4.60275 2.4313
139 1 9.1132 5.42686 1.93131
141 1 6.6671 4.47781 3.31128
150 1 8.23631 3.67684 4.98615
156 1 6.91429 4.16024 4.70371
151 1 8.54376 5.20242 6.97159
166 1 7.47938 4.45785 7.74898
23 1 6.20459 4.06836 7.03156
165 1 8.63756 4.43387 9.89976
167 1 7.53533 4.12165 9.10593
35 1 6.63524 3.16168 9.58322
171 1 7.92248 8.35134 1.51949
140 1 7.59587 7.75109 0.325186
142 1 8.27628 7.49823 2.67432
145 1 6.80912 6.59573 0.837379
49 1 6.03146 6.63161 2.19697
144 1 7.16616 7.0025 3.35784
148 1 7.10725 6.94601 4.77602
154 1 8.36142 6.96973 5.44603
153 1 8.3725 6.64648 6.75939
162 1 8.51695 7.63791 7.76099
159 1 8.9236 7.00941 9.08606
188 1 7.82855 8.32722 11.1386
160 1 7.61272 7.29739 9.77945
74 1 6.34375 6.92297 9.03347
110 1 6.54333 9.03756 10.8384
169 1 6.92137 9.44441 1.89374
174 1 8.06598 10.6883 3.58239
170 1 6.94168 9.9538 3.15215
177 1 8.92585 9.60188 6.42588
178 1 8.85104 11.1181 6.42306
180 1 7.85907 9.84435 8.70462
181 1 8.43882 11.3338 8.6874
184 1 8.29872 8.98899 7.61378
104 1 6.67847 9.57313 9.5045
191 1 8.98165 9.50133 10.8698
115 1 10.8024 1.47438 2.09324
112 1 9.71781 1.44467 1.0273
116 1 12.0551 0.937264 2.58052
111 1 10.1675 2.00486 3.35513
126 1 11.1855 0.0993274 4.49368
120 1 10.148 1.08508 4.46446
123 1 9.1302 1.0303 5.37732
127 1 10.1607 0.660198 7.85169
189 1 11.4936 0.177193 7.43726
131 1 9.43681 1.45701 9.04559
135 1 9.99899 2.50355 9.82163
105 1 11.5341 -0.0344461 10.1559
119 1 9.9992 4.71623 1.10312
117 1 11.2964 4.5582 1.80735
157 1 11.2164 5.59179 3.89779
124 1 9.70846 3.69742 4.96632
128 1 10.506 3.27398 3.8095
146 1 11.0702 4.34369 3.20823
161 1 10.4765 5.14948 8.47479
155 1 9.92155 4.78551 7.12458
122 1 11.8516 3.72815 6.23625
125 1 10.4986 4.11649 6.07786
133 1 11.5813 4.35039 8.99263
163 1 9.41865 5.52292 9.29254
113 1 9.77375 4.29462 11.9741
136 1 9.19685 3.40464 10.762
132 1 11.3628 3.04516 9.66065
143 1 9.27946 6.54511 2.71398
168 1 11.3603 7.93412 0.725565
149 1 9.65847 7.50405 5.13598
138 1 10.1284 6.66104 3.83338
175 1 9.77315 8.98364 5.29215
152 1 10.9637 7.13766 6.19777
158 1 11.107 7.5678 10.3378
164 1 10.311 7.96613 9.33709
79 1 10.8139 7.3872 11.7364
172 1 10.4151 10.0109 4.53232
173 1 11.2281 11.0016 4.93818
179 1 9.38126 10.4766 3.75358
182 1 11.3945 9.90916 8.17457
186 1 11.5771 10.9971 7.31107
183 1 10.4834 9.34323 9.01266
185 1 9.36789 11.649 7.6891
187 1 10.1315 9.91551 10.237
190 1 10.6446 11.2289 10.4315
ITEM: TIMESTEP
3000
ITEM: NUMBER OF ATOMS
191
ITEM: BOX BOUNDS pp pp pp
-2.0862845155071302e-01 1.2208628451550720e+01
-2.0862845155071302e-01 1.2208628451550720e+01
-2.0862845155071302e-01 1.2208628451550720e+01
ITEM: ATOMS id type x y z
12 1 0.904146 0.663045 4.79744
118 1 -0.0817541 0.717305 3.83308
31 1 2.74187 0.699007 8.88912
32 1 1.22518 0.682955 8.65958
11 1 0.424499 0.629146 7.44735
17 1 2.35116 2.13093 6.25248
13 1 1.08367 1.40135 6.03494
28 1 0.416545 0.588887 9.90379
38 1 2.44496 1.88597 10.8844
30 1 1.26852 2.54605 11.0079
29 1 0.202672 1.96801 10.4203
36 1 2.7912 0.644495 11.731
7 1 0.0252431 4.71034 1.08611
6 1 0.943866 3.83046 0.54254
45 1 0.958515 5.61526 1.79085
4 1 1.53846 2.97903 1.45925
5 1 2.77046 2.82299 2.08388
14 1 2.06672 3.55607 6.5538
22 1 0.690998 3.93535 7.04164
63 1 0.472831 4.7238 8.34286
34 1 1.29666 3.83155 11.5791
64 1 1.77009 5.05265 10.7614
66 1 1.7647 4.83056 9.22015
39 1 0.346897 8.52425 0.718754
42 1 1.46831 8.07634 1.49308
43 1 2.67621 8.00228 0.775592
41 1 1.63765 7.6773 2.79665
54 1 2.42457 6.76597 5.3672
50 1 1.99278 8.67786 3.73967
52 1 0.907189 6.4097 5.43226
40 1 1.25754 6.34678 2.96118
60 1 2.32437 8.24555 4.95535
53 1 0.399409 5.9506 4.13658
108 1 1.27231 8.48829 8.93377
67 1 1.53989 7.25472 8.52978
71 1 0.398843 6.27363 7.84654
59 1 -0.0364131 6.63538 6.47775
75 1 1.59055 8.77751 11.3228
76 1 2.23501 7.54153 11.8098
77 1 2.28523 6.31629 11.2331
89 1 1.46473 10.4954 0.701458
84 1 1.11805 10.8086 2.12984
80 1 0.864101 9.5544 -0.163286
83 1 1.93712 10.1484 3.15466
21 1 1.72831 11.8819 4.90108
96 1 1.04662 10.8929 5.71635
109 1 0.15456 9.01854 8.35792
107 1 1.98365 9.08296 9.98176
1 1 3.40312 1.57181 2.15778
3 1 4.63983 1.19303 2.21554
16 1 4.1283 0.0927024 5.23523
2 1 5.54136 1.43631 3.09076
26 1 5.76233 0.820432 8.74586
24 1 5.62035 2.38081 8.76432
10 1 4.81212 2.26476 6.59197
18 1 3.70876 1.56252 5.9287
25 1 3.2467 2.03842 9.66718
48 1 4.64661 5.03984 0.436857
44 1 5.61499 5.26153 2.59913
46 1 4.43788 4.76995 1.78216
8 1 3.28866 4.0628 2.36129
56 1 5.10162 5.92412 5.60396
51 1 3.47716 5.89643 5.86654
70 1 3.02976 5.30039 8.63281
57 1 3.00128 4.77999 6.88204
9 1 5.64793 2.97968 7.37101
78 1 5.0691 4.45273 11.6968
68 1 4.13266 4.4342 9.45093
69 1 4.91415 5.13052 10.4846
37 1 5.63698 3.1012 11.7739
27 1 4.17523 3.09044 9.23654
47 1 5.05184 7.93217 2.33128
82 1 4.82975 8.84724 1.27713
49 1 6.01313 6.8002 2.20719
90 1 3.63761 9.04604 0.605721
55 1 5.84067 7.28378 5.54016
92 1 4.89913 8.69573 3.52764
73 1 4.24758 7.67666 8.57279
62 1 5.64811 7.49516 8.04883
61 1 5.68237 8.23903 6.66918
65 1 2.9429 6.85905 8.58274
102 1 4.2573 9.11531 9.15654
72 1 5.54064 6.54978 10.317
81 1 5.38028 7.77872 11.0269
88 1 3.58123 11.3737 1.8133
91 1 5.94323 9.71483 0.979889
85 1 3.03138 10.8203 0.403146
20 1 3.04033 11.9809 4.45458
94 1 5.44237 11.7694 5.32415
97 1 5.56595 10.3408 5.22853
87 1 3.10177 11.1287 3.23501
95 1 5.81622 9.70285 3.9372
93 1 5.50723 9.77857 6.58139
100 1 5.37089 10.7568 7.87625
101 1 5.38413 9.77852 8.93246
106 1 4.9105 12.0879 8.29991
33 1 3.63705 12.0513 8.96184
98 1 3.32315 11.1308 10.1686
99 1 3.20102 9.81605 9.786
103 1 3.10197 11.6718 11.5983
86 1 6.08557 9.91377 11.9363
114 1 8.84967 1.85995 0.0445308
15 1 6.66778 0.0316657 5.1279
19 1 6.32348 1.03582 4.1525
123 1 8.96169 0.687617 5.0194
129 1 8.23687 -0.0635221 9.34031
137 1 6.88151 0.388104 9.48872
134 1 6.74166 2.59002 11.0029
130 1 8.05383 2.70807 11.6004
147 1 7.7929 4.43662 2.37898
139 1 9.06016 5.18598 2.11165
141 1 6.70492 4.50453 3.196
150 1 8.21215 3.91536 4.94283
156 1 6.91447 4.32055 4.63593
58 1 6.00262 4.78788 5.71477
151 1 8.45207 5.25018 7.07033
166 1 7.36405 4.53012 7.78525
23 1 6.25839 4.26733 7.03127
165 1 8.49666 4.60794 10.1072
136 1 8.54576 3.99375 11.4273
167 1 7.52946 4.08698 9.18201
35 1 6.73619 2.90369 9.60622
171 1 8.02455 8.43737 1.38115
140 1 7.77517 7.59966 0.237995
142 1 8.26041 7.60067 2.53206
145 1 6.70041 6.72528 0.850237
144 1 7.19578 7.2907 3.36135
148 1 7.21934 7.34423 4.77837
154 1 8.5209 7.25946 5.36749
153 1 8.45013 6.58519 6.77931
162 1 8.84659 7.5653 7.74531
184 1 8.5878 8.99469 7.58097
188 1 7.8009 8.3098 11.1765
160 1 7.7405 7.17461 9.7693
74 1 6.39109 7.00258 9.09692
110 1 6.42166 8.86407 10.9864
169 1 7.03982 9.50674 1.75487
174 1 8.06943 10.6858 3.4453
170 1 6.9303 9.91098 3.12148
121 1 7.9671 12.164 5.52
177 1 8.89196 9.74673 6.25368
178 1 8.56443 11.1081 6.37344
180 1 7.93749 9.72046 8.66159
181 1 8.49553 11.1322 8.74329
104 1 6.68081 9.47504 9.45351
191 1 9.06173 9.22196 10.9678
115 1 10.8362 1.74233 2.08664
112 1 9.88901 1.56549 0.876842
116 1 12.1394 1.2613 2.49619
111 1 10.3266 2.09707 3.4331
126 1 11.2103 0.074728 4.3074
120 1 10.1324 1.03318 4.36185
127 1 10.1648 0.168903 7.95124
131 1 9.68272 0.936721 9.05086
189 1 11.5779 0.00137032 7.59065
135 1 10.3519 2.06102 9.59765
132 1 11.6448 2.86139 9.70497
119 1 9.96926 4.58611 1.21617
117 1 11.2592 4.33843 1.83135
113 1 9.34015 4.6079 -0.0066038
157 1 11.4611 5.71114 3.90863
124 1 9.66466 3.808 5.1321
128 1 10.3438 3.44811 3.95489
146 1 11.2312 4.41205 3.28693
161 1 10.3387 4.90786 8.65754
155 1 9.82447 4.70781 7.3255
122 1 11.7999 3.6493 6.44474
125 1 10.4248 3.99614 6.32033
133 1 11.5539 4.18809 9.00759
163 1 9.43557 5.50804 9.50601
168 1 11.8623 7.52146 0.0969182
143 1 9.46373 6.52957 2.72596
149 1 9.97522 7.76192 4.9953
138 1 10.4421 6.79411 3.76801
152 1 11.2718 7.41984 6.18279
158 1 11.2672 7.03526 10.218
164 1 10.4162 7.77161 9.46501
79 1 11.515 6.75976 11.4953
159 1 9.0597 7.13085 9.14651
172 1 10.3144 10.3093 4.39212
173 1 11.2856 11.1524 4.82511
179 1 9.4479 10.7973 3.43022
176 1 12.072 10.6588 5.91309
175 1 9.73813 9.22264 5.16028
182 1 11.4247 9.79572 8.20039
186 1 11.7223 10.7997 7.29392
185 1 9.2051 11.6445 7.55035
187 1 10.2244 9.97772 10.3617
190 1 11.1186 10.981 10.6466
105 1 12.1739 11.8114 10.382
183 1 10.587 9.20421 9.27073
ITEM: TIMESTEP
4000
ITEM: NUMBER OF ATOMS
191
ITEM: BOX BOUNDS pp pp pp
-1.4363682225966168e-01 1.2143636822259632e+01
-1.4363682225966168e-01 1.2143636822259632e+01
-1.4363682225966168e-01 1.2143636822259632e+01
ITEM: ATOMS id type x y z
4 1 2.01625 2.9087 1.16531
12 1 0.925365 0.730757 4.91908
118 1 -0.118238 0.79391 3.97215
31 1 2.72935 0.859823 8.86379
32 1 1.33621 0.552871 8.63206
11 1 0.690559 0.610826 7.33425
17 1 2.40581 2.25902 6.11598
13 1 1.32397 1.3669 6.17422
28 1 0.484616 0.875058 9.66617
38 1 2.60411 1.80239 10.9531
30 1 1.3691 2.60896 10.8804
29 1 0.360611 2.19155 10.0815
7 1 0.306911 4.49216 1.44192
6 1 1.0775 3.69018 0.610018
45 1 0.998361 5.3415 2.35094
14 1 2.21861 3.56968 6.57885
22 1 0.819832 4.05088 6.94243
63 1 0.603319 4.72259 8.28271
34 1 1.25061 3.83929 11.503
64 1 1.6157 4.85095 10.6795
66 1 1.78057 4.65435 9.36671
39 1 0.14644 8.34127 0.85764
42 1 1.45856 7.93869 1.44393
43 1 2.60557 8.10301 0.682935
54 1 2.45973 6.62356 5.56181
50 1 2.06155 8.6228 3.79031
52 1 0.858192 6.25826 5.62068
60 1 2.65976 7.94337 4.89974
40 1 0.949663 6.42351 3.19353
41 1 1.49936 7.67186 2.85157
53 1 0.100932 6.20003 4.48183
108 1 1.56396 8.44905 8.70575
67 1 1.83416 7.10828 8.64804
71 1 0.870484 6.28432 8.03744
59 1 0.197196 6.76367 6.81814
75 1 1.2535 8.55453 11.1791
76 1 2.12776 7.47107 11.7264
77 1 1.94487 6.1438 11.3113
107 1 1.85031 8.98586 9.97982
89 1 1.26816 10.242 0.706908
84 1 0.970444 10.17 2.1688
85 1 2.84803 10.6621 0.618024
80 1 0.55771 9.22695 -0.0695777
83 1 1.95673 9.91924 3.24919
21 1 1.55163 11.6573 4.84214
96 1 0.875638 10.4672 5.15792
20 1 2.91828 11.669 4.54888
109 1 0.767826 9.20756 7.79198
1 1 4.00336 1.94633 2.2569
16 1 3.76666 0.170884 5.24328
18 1 3.63231 1.57452 5.89752
3 1 5.17691 1.78753 2.8324
26 1 5.95237 0.536304 8.96188
24 1 5.65303 2.46827 8.7713
9 1 5.695 2.73706 7.40911
10 1 5.11383 2.07297 6.24729
25 1 3.18566 2.00368 9.649
36 1 2.84371 0.701043 11.7662
27 1 4.31077 2.97552 9.27896
48 1 4.45133 5.17172 0.35113
44 1 5.56057 5.48623 2.5678
46 1 4.52527 5.00161 1.71138
8 1 3.51047 4.13488 2.47861
5 1 3.09734 2.93893 1.95405
58 1 5.82689 4.75324 5.72178
56 1 4.92647 5.87537 5.80281
70 1 3.17006 4.95563 8.50773
51 1 3.4792 5.68545 6.12703
57 1 3.10878 4.66718 7.06709
78 1 4.7574 4.42085 11.4348
68 1 4.28131 4.3597 9.15837
69 1 4.97721 5.21783 10.2332
37 1 5.60281 3.23543 11.65
47 1 4.94009 7.97051 2.42077
82 1 4.7087 8.69252 1.03874
49 1 5.75035 6.86875 2.74582
90 1 3.54115 9.17384 0.586152
92 1 4.75234 8.918 3.41541
55 1 5.62682 7.14082 5.79301
73 1 4.31523 7.71097 8.95412
62 1 5.66366 7.57687 8.17796
61 1 5.6748 8.06594 6.81439
65 1 3.20576 6.63662 8.8192
102 1 4.32864 8.86004 9.62931
88 1 3.35243 11.4154 1.84664
95 1 5.66187 9.89314 3.87994
94 1 5.25905 11.6933 5.35404
97 1 5.708 10.3616 5.17658
87 1 3.09126 10.9926 3.22612
93 1 5.60814 9.6878 6.48807
100 1 5.33654 10.588 8.02347
106 1 5.04223 11.9023 8.51022
101 1 5.39066 9.73867 9.17436
98 1 3.20949 11.1106 10.2008
103 1 2.97425 11.5962 11.619
99 1 3.13928 9.64016 10.0367
33 1 3.65471 12.1027 9.11731
114 1 8.70499 1.82182 0.35636
15 1 6.44038 0.348293 5.55634
2 1 5.81512 2.02892 3.95465
123 1 8.57954 0.705073 4.82249
19 1 6.14797 1.6482 5.24566
137 1 7.23921 0.658932 9.46428
130 1 8.10233 2.77789 11.8212
134 1 6.7601 2.71672 11.0538
35 1 6.75361 2.96753 9.59348
129 1 8.55656 0.451949 9.19259
147 1 7.73748 4.64808 2.31496
139 1 9.03861 5.19071 2.12924
141 1 6.60629 4.68507 3.16649
150 1 8.07152 4.08837 4.9678
156 1 6.8148 4.44148 4.61018
151 1 8.49121 5.33628 7.11383
166 1 7.42342 4.73784 7.75684
23 1 6.35733 4.18767 6.99452
167 1 7.50923 4.07877 9.05851
165 1 8.51101 4.55215 10.0443
136 1 8.83526 3.90042 11.3093
81 1 6.86814 5.99424 11.242
171 1 8.04846 8.35556 1.48813
140 1 8.18397 7.7978 0.141492
145 1 7.77501 6.41128 -0.0765265
142 1 8.00467 7.30272 2.6026
144 1 6.85556 7.19227 3.52162
148 1 6.8044 7.15637 4.96817
154 1 8.07873 7.08616 5.46365
153 1 8.48935 6.62481 6.72584
162 1 8.79535 7.67506 7.64617
184 1 8.36775 9.10559 7.45301
188 1 8.24588 8.67845 11.2957
160 1 7.97688 7.52491 9.89981
74 1 6.62984 7.12115 9.27256
72 1 5.91883 6.22185 10.2054
169 1 6.99365 9.28 1.50378
91 1 5.84688 9.35509 0.657068
170 1 6.75924 10.1885 2.74944
174 1 7.7559 11.0987 2.97913
121 1 7.75178 12.0297 5.56786
179 1 9.03234 10.9128 3.27204
177 1 8.63883 9.6864 6.228
178 1 8.57594 11.1629 6.16612
180 1 7.80496 10.0417 8.48282
181 1 8.54484 11.4317 8.56187
104 1 6.77264 9.50736 9.51467
110 1 7.12926 9.61844 10.8781
86 1 6.21761 10.1534 11.7687
115 1 10.6121 1.63943 2.12505
112 1 9.87954 1.58254 0.959175
116 1 11.9904 1.22211 2.48257
111 1 9.91625 2.11349 3.32982
126 1 10.8868 0.180898 4.52629
120 1 9.81274 1.10781 4.46684
127 1 10.2539 0.418162 7.61606
131 1 9.70932 1.19388 8.83411
189 1 11.5853 -0.0403281 7.31888
135 1 10.2221 2.46387 9.51838
119 1 9.94717 4.81293 1.18632
117 1 11.289 4.36392 1.97277
113 1 9.84037 4.50326 -0.201969
157 1 11.0498 5.90506 4.0431
124 1 9.42902 3.82806 5.07029
128 1 10.0157 3.42421 3.79888
146 1 10.8299 4.5245 3.3911
161 1 10.3919 4.79576 8.6661
155 1 9.77041 4.62763 7.3518
122 1 11.9265 3.70601 6.29217
125 1 10.3937 4.03632 6.22523
133 1 11.6717 4.19757 8.91539
163 1 9.52986 5.5644 9.5465
132 1 11.5094 2.99984 9.69178
168 1 11.7855 7.14084 0.360072
143 1 9.01795 6.3979 2.78032
149 1 9.2958 7.69644 4.72698
138 1 10.0188 6.83873 3.7495
175 1 9.22649 9.1951 5.05223
152 1 11.2481 7.22012 7.03137
159 1 9.24056 7.12094 9.01741
158 1 11.4543 7.01851 10.1705
164 1 10.7663 7.70195 9.18758
79 1 11.8254 6.58969 11.4058
172 1 9.79744 10.1814 4.2576
173 1 10.9052 11.0067 4.63993
176 1 11.8604 10.5423 5.6093
182 1 11.7763 9.6942 7.92448
186 1 11.5507 10.8266 6.95332
185 1 9.22219 11.7017 7.26878
183 1 10.8607 9.13703 8.86696
187 1 10.3208 10.0369 9.91777
190 1 10.875 11.3802 10.3443
191 1 9.48652 9.41269 10.8587
105 1 11.9598 12.1705 10.214
ITEM: TIMESTEP
5000
ITEM: NUMBER OF ATOMS
191
ITEM: BOX BOUNDS pp pp pp
-9.5209144832176129e-02 1.2095209144832138e+01
-9.5209144832176129e-02 1.2095209144832138e+01
-9.5209144832176129e-02 1.2095209144832138e+01
ITEM: ATOMS id type x y z
4 1 1.73689 2.61484 1.43388
5 1 2.83339 2.98982 2.19598
116 1 0.0257318 1.03051 2.54428
12 1 1.11225 0.631083 4.92081
118 1 0.066796 0.724983 3.9226
31 1 2.93411 0.853858 8.92985
32 1 1.55968 0.702442 8.51209
11 1 0.822622 0.75119 7.18811
17 1 2.48792 2.27292 6.03719
13 1 1.35956 1.39333 6.05471
28 1 0.461475 0.718421 9.43439
38 1 2.56265 1.83721 10.8868
30 1 1.38171 2.60883 10.7339
29 1 0.266569 2.06259 9.98017
36 1 2.82825 0.75952 11.799
7 1 0.594534 4.66837 1.41197
6 1 1.10848 3.62678 0.659305
45 1 1.67672 5.25415 2.19153
8 1 2.97529 4.39192 2.5123
14 1 2.26023 3.65845 6.53122
22 1 0.838274 3.94748 6.94077
63 1 0.748645 4.8312 8.18363
34 1 1.37124 3.82643 11.44
64 1 1.85928 5.0021 10.7149
66 1 1.88082 4.88939 9.20214
39 1 0.0798235 8.36027 0.979155
42 1 1.32295 8.05431 1.56268
43 1 2.43406 8.07985 0.715113
41 1 1.3894 7.68534 2.80537
54 1 2.6394 6.85239 5.42107
50 1 1.99013 8.61249 3.68597
52 1 1.25928 6.57511 5.3767
53 1 0.556816 6.09879 4.21094
40 1 1.29252 6.38769 3.03753
108 1 1.54099 8.65342 8.58049
67 1 1.90589 7.24512 8.54945
71 1 0.786937 6.37718 7.76487
59 1 0.336585 6.91326 6.48392
75 1 1.16089 8.72731 11.0133
76 1 1.98981 7.64446 11.5872
77 1 2.17582 6.3074 11.2973
89 1 0.771624 10.5493 0.912554
84 1 0.913732 10.6284 2.33595
80 1 0.417431 9.47402 -0.0537283
96 1 0.945847 10.542 5.3477
21 1 1.72589 11.6154 5.00978
83 1 2.1512 9.90031 3.18592
109 1 0.605113 9.25669 7.82061
107 1 1.86619 9.26528 9.85437
1 1 4.04605 2.31342 2.20512
3 1 5.11797 1.90551 2.87413
16 1 3.91257 0.180264 5.15106
18 1 3.75319 1.49339 5.7901
10 1 5.05691 2.23348 5.93962
26 1 6.00282 0.199688 8.87538
24 1 5.62293 2.67155 8.41993
25 1 3.42482 1.94989 9.6964
37 1 5.58504 2.89808 11.5087
27 1 4.32223 2.8421 9.08608
48 1 4.32391 4.48909 0.510131
46 1 4.18038 4.81616 1.84799
44 1 5.28805 5.3076 2.48681
56 1 5.00856 5.79698 5.6022
51 1 3.60889 5.86417 5.94041
70 1 3.19212 5.1987 8.53236
57 1 3.10498 4.95305 6.92672
9 1 5.60812 2.93911 7.08259
78 1 5.00223 4.16174 11.6281
68 1 4.24767 4.30504 9.37814
69 1 4.98933 4.94548 10.4888
72 1 6.04072 5.93802 10.4888
47 1 4.63445 7.82356 2.49584
82 1 4.56174 8.52884 1.26837
49 1 5.50265 6.73806 2.86701
90 1 3.41705 9.04502 0.702342
55 1 5.67804 7.14975 5.75076
92 1 4.42476 8.60921 3.80558
60 1 3.13505 8.0646 4.44036
73 1 4.27643 7.65694 8.9662
62 1 5.58241 7.32937 8.41824
61 1 5.6979 7.85619 7.02938
65 1 3.17666 6.72087 8.79742
102 1 4.29062 8.84177 9.71196
88 1 3.62256 11.2398 1.89839
91 1 5.7199 9.31477 1.05544
85 1 3.43398 10.6384 0.666106
95 1 5.43905 9.48532 4.21257
94 1 5.14485 11.6253 5.34595
97 1 5.23453 10.2396 5.45131
20 1 2.97491 11.7105 4.43544
87 1 3.12725 10.9967 3.24375
93 1 5.30513 9.55668 6.72058
100 1 5.09793 10.2648 7.91145
106 1 4.86879 11.621 8.30899
98 1 3.45491 10.9838 10.3533
103 1 3.39898 11.4027 11.6769
99 1 3.26604 9.70189 9.98832
101 1 5.53699 9.52991 9.0343
33 1 3.7668 11.8345 9.36883
15 1 6.37241 0.246439 5.55378
123 1 8.51762 0.98727 4.69432
19 1 6.05079 1.59138 5.16716
2 1 6.0024 1.68426 3.78777
121 1 7.75047 0.0133328 5.57676
134 1 6.78628 2.70524 10.8437
129 1 8.45144 0.295981 9.474
137 1 7.06902 0.449725 9.64335
130 1 8.22487 2.82287 11.4
147 1 7.71752 4.53103 2.09449
141 1 6.58113 4.74055 2.93842
156 1 6.79285 4.46897 4.43661
150 1 8.21362 4.07905 4.72516
58 1 5.94632 4.82044 5.55867
151 1 8.45728 5.25062 6.93503
166 1 7.52327 4.28889 7.57069
23 1 6.31326 4.18333 6.85962
165 1 8.68571 4.58607 9.82998
136 1 8.98175 4.0102 11.0961
81 1 6.79912 5.9254 11.5981
35 1 6.73244 3.06009 9.32978
167 1 7.65655 4.04134 9.14225
171 1 7.81778 8.40465 1.72609
140 1 8.07546 7.88502 0.360676
142 1 7.96981 7.35589 2.69195
145 1 7.79412 6.57706 0.0184627
143 1 9.07982 6.37082 2.84109
144 1 6.79324 7.0226 3.47879
148 1 6.82394 7.30897 4.82997
154 1 8.08878 7.22837 5.40366
153 1 8.1323 6.59619 6.61819
162 1 8.52542 7.66459 7.6202
188 1 8.22773 8.55108 11.2559
160 1 7.93168 7.30107 9.79729
74 1 6.57577 6.7086 9.42658
169 1 6.78364 9.35119 1.97206
174 1 7.59891 11.0785 3.23793
170 1 6.54576 10.1537 3.23481
179 1 8.99704 10.755 3.28834
177 1 8.54344 9.96447 6.31769
181 1 8.57292 11.2155 8.80877
180 1 8.01541 9.87793 8.72821
178 1 8.35268 11.2763 6.39682
184 1 8.40135 9.13456 7.48945
104 1 6.89192 9.58965 9.52673
110 1 7.01578 9.29971 10.8889
86 1 6.24885 9.69774 11.9651
115 1 10.9637 1.49131 2.06069
112 1 10.1075 1.55848 0.86863
114 1 9.15533 2.01915 0.0102037
111 1 10.1795 2.10163 3.23297
120 1 9.79895 1.07634 4.06306
126 1 10.9053 0.110449 4.31684
127 1 10.109 0.546592 7.62208
189 1 11.4651 0.149092 7.51045
135 1 10.0537 2.50461 9.50401
131 1 9.50921 1.29814 9.03583
132 1 11.4221 2.86333 9.6975
119 1 10.1391 4.88195 1.15922
117 1 11.479 4.63949 1.91684
139 1 9.03472 5.255 1.85606
146 1 11.2181 4.51764 3.27944
124 1 9.62227 3.79643 4.93071
128 1 10.34 3.43346 3.663
157 1 11.2416 5.80053 4.03596
161 1 10.4824 5.05115 8.40754
155 1 9.87508 4.99145 7.03464
122 1 11.8646 3.59953 6.19598
133 1 11.56 4.23897 8.98919
125 1 10.4811 4.13151 6.07498
163 1 9.39894 5.63801 9.17093
113 1 9.9584 4.55032 11.8995
168 1 11.0895 7.66263 0.62863
149 1 9.19234 7.7917 4.73856
138 1 9.97088 6.70244 3.93881
152 1 11.3163 7.63177 6.34887
159 1 9.0955 7.00409 8.93022
158 1 11.2634 7.15686 10.2811
79 1 11.1584 7.04367 11.6283
164 1 10.3613 7.88604 9.3593
172 1 9.89495 10.1563 4.26977
173 1 10.8492 11.0627 4.86623
176 1 11.7604 10.569 5.79098
175 1 9.24494 9.18864 5.04579
182 1 11.5526 9.91247 8.16789
186 1 11.3586 10.9512 7.14216
185 1 9.11073 11.7279 7.47588
187 1 10.2471 10.0514 10.3694
190 1 11.1382 11.1797 10.7136
191 1 9.39809 9.52546 11.2912
183 1 10.6812 9.27866 9.21564
105 1 12.0258 11.9409 10.3296
ITEM: TIMESTEP
6000
ITEM: NUMBER OF ATOMS
191
ITEM: BOX BOUNDS pp pp pp
-1.2895304419590026e-01 1.2128953044195850e+01
-1.2895304419590026e-01 1.2128953044195850e+01
-1.2895304419590026e-01 1.2128953044195850e+01
ITEM: ATOMS id type x y z
4 1 1.89858 2.75906 1.42636
12 1 1.04859 0.709557 4.73046
118 1 -0.0881239 0.565435 3.71806
31 1 2.89806 0.771111 8.78971
32 1 1.45704 0.71255 8.62401
11 1 0.708983 0.654978 7.40389
13 1 1.31643 1.33427 6.1745
17 1 2.5846 2.00538 6.22406
28 1 0.469089 0.809195 9.78462
38 1 2.64895 1.85442 10.9033
30 1 1.3317 2.51124 10.993
29 1 0.282565 2.18793 10.1584
36 1 2.93587 0.725221 11.6021
7 1 0.486532 4.76416 1.42813
6 1 1.16349 3.7902 0.64832
45 1 1.56722 5.47603 2.11406
5 1 2.71296 3.15212 2.35636