ITEM: TIMESTEP
1000
ITEM: NUMBER OF ATOMS
191
ITEM: BOX BOUNDS pp pp pp
0.0000000000000000e+00 1.2000000000000000e+01
0.0000000000000000e+00 1.2000000000000000e+01
0.0000000000000000e+00 1.2000000000000000e+01
ITEM: ATOMS id type x y z
12 1 1.20509 0.848646 4.8824
1 1 2.45416 2.21262 3.44646
118 1 0.0568909 0.931156 4.21542
31 1 2.7963 1.20012 8.59879
32 1 1.33362 1.11411 8.47168
11 1 0.524598 1.20419 7.34151
17 1 2.71238 2.40746 6.16634
13 1 1.38231 1.67759 6.10224
28 1 0.600435 1.06936 9.68613
29 1 0.380463 2.49177 10.0643
30 1 1.54051 2.88833 10.6729
38 1 2.76966 2.1392 10.5977
4 1 2.18611 3.42645 1.49308
6 1 1.37529 4.1638 0.681185
7 1 0.316389 4.7799 1.23673
5 1 2.72351 3.38718 2.80547
53 1 0.358511 5.83537 4.1516
14 1 2.48962 3.77126 6.47623
22 1 1.04066 4.12647 6.92577
63 1 0.861504 4.89394 8.19573
34 1 1.60511 4.1806 11.3394
64 1 1.84804 5.17285 10.4568
66 1 1.97643 4.87993 9.13738
39 1 0.181589 8.50532 0.712513
43 1 2.65505 8.15867 0.868042
42 1 1.41328 7.99508 1.5577
45 1 0.410238 6.0196 1.6437
40 1 0.607622 6.50916 2.98891
41 1 1.37971 7.70322 2.91852
54 1 2.3679 6.52629 5.21292
50 1 2.14686 8.46843 3.69532
52 1 1.04645 6.21113 5.25484
60 1 2.43505 7.90596 4.88676
59 1 0.319578 6.54721 6.41356
67 1 1.82448 7.31926 8.10585
71 1 0.824954 6.39916 7.65354
108 1 1.50378 8.72625 8.5489
75 1 1.63839 8.73584 10.9
76 1 2.39605 7.75422 11.4558
77 1 2.36185 6.3648 11.1126
89 1 1.68557 10.4378 0.778156
84 1 1.26087 10.293 2.26055
96 1 1.39937 10.5244 5.80047
21 1 1.92503 11.6793 5.0829
83 1 1.97272 9.86486 3.45811
109 1 0.460584 9.13924 7.92927
107 1 1.96788 9.23301 9.68906
80 1 0.964113 9.47731 11.8748
3 1 3.46182 1.23958 3.5408
16 1 4.12741 0.164967 5.50129
2 1 4.94593 1.47411 3.18049
9 1 5.79569 2.82726 7.153
24 1 5.70492 2.43076 8.65892
26 1 5.83625 0.933983 8.58776
10 1 5.33926 2.06308 6.16372
18 1 3.95423 1.52412 6.0336
25 1 3.47206 2.22466 9.36298
36 1 3.1563 1.05003 11.3995
48 1 4.33373 4.65548 0.709691
44 1 5.99016 5.22315 2.44868
46 1 4.83482 4.57961 2.03733
8 1 3.91788 4.06314 2.96916
58 1 5.89245 4.77236 5.62939
56 1 5.05263 5.94244 5.47293
51 1 3.61934 5.79543 5.77172
70 1 3.40603 5.25056 8.37877
57 1 3.29911 4.88631 6.83742
78 1 5.12797 4.29346 11.5245
68 1 4.40579 4.42649 9.42396
69 1 5.059 5.21573 10.3426
27 1 4.47806 3.0505 9.22505
47 1 5.19546 7.94796 2.43487
82 1 4.90455 8.78538 1.39948
92 1 5.0144 8.61295 3.70179
55 1 5.95341 7.18716 5.53858
73 1 4.19161 7.74413 8.55678
62 1 5.53684 7.49362 7.95057
65 1 3.19209 6.8109 8.4114
61 1 5.63671 8.06901 6.60218
72 1 5.55993 6.5066 10.3029
81 1 5.54413 7.76087 11.0694
88 1 3.49987 11.0428 2.1632
85 1 3.16455 10.4098 1.00517
91 1 5.91697 9.71594 1.04399
90 1 3.67653 9.11918 1.0001
94 1 5.51007 11.7138 5.47563
97 1 5.54044 10.2859 5.25334
87 1 3.11333 10.7168 3.43176
20 1 3.18504 11.8843 4.2963
95 1 5.89847 9.73487 4.04418
93 1 5.64775 9.60237 6.45837
100 1 5.39615 10.4731 7.59658
101 1 5.51693 9.71445 8.84227
106 1 4.93343 11.8978 7.96221
33 1 3.59975 11.9983 8.55921
98 1 3.50555 11.1841 9.68144
103 1 3.22428 11.7935 10.9441
99 1 3.27887 9.79207 9.59418
102 1 4.32834 9.07969 9.01661
114 1 8.60925 1.0636 0.341457
15 1 6.28686 1.03729 5.36838
19 1 6.14573 1.31933 3.9212
121 1 7.76238 0.614062 5.91285
128 1 8.88866 2.97665 3.70562
129 1 8.35478 0.18746 9.37563
130 1 8.26103 2.13424 11.4211
137 1 7.02759 0.504277 9.32774
134 1 6.96563 2.54662 10.8961
35 1 6.87822 2.8466 9.43909
147 1 8.12484 3.78741 2.81579
139 1 8.95702 4.71955 2.11283
141 1 6.86754 4.534 3.29409
150 1 8.14886 4.52859 5.47536
156 1 6.87198 4.6036 4.71775
151 1 8.27125 5.07366 6.80782
166 1 7.22697 4.60737 7.64401
23 1 6.11789 4.13615 6.99852
167 1 7.57641 4.01855 8.90824
165 1 8.33637 4.89564 9.7276
37 1 6.09022 3.28999 11.648
49 1 6.32647 6.66491 2.15676
140 1 7.99375 7.68454 0.383597
142 1 8.58072 7.38481 2.5869
145 1 6.96274 6.67636 0.681379
171 1 8.11027 8.45739 1.63405
144 1 7.31434 7.04926 3.2988
148 1 7.18411 7.1601 4.73754
154 1 8.35935 7.1502 5.53352
153 1 8.1698 6.55922 6.73473
162 1 8.58165 7.49694 7.74916
184 1 8.14193 8.93666 7.51019
188 1 7.99517 8.26872 11.0671
74 1 6.48352 6.90777 9.14608
160 1 7.81743 7.2395 9.89896
169 1 7.09657 9.53003 1.87342
174 1 7.97704 10.9841 3.56656
170 1 6.93637 10.1165 3.21665
177 1 8.34338 9.55504 6.12299
178 1 8.10362 11.1346 6.34415
180 1 7.89147 9.70405 8.60484
181 1 8.60636 10.9521 8.71045
185 1 8.91145 11.4014 7.40967
104 1 6.73251 9.58153 9.41521
110 1 6.49943 9.08283 10.8292
86 1 6.07477 10.1283 11.7812
115 1 10.3233 1.23323 2.44296
116 1 11.6482 0.993539 2.82226
112 1 9.70433 1.22206 1.2498
111 1 9.4857 1.66562 3.53701
126 1 10.9251 0.207048 4.75638
120 1 9.76984 1.11383 4.82804
123 1 9.07273 1.35593 5.95414
127 1 9.85358 0.871564 7.35898
189 1 11.3665 0.497339 7.24559
131 1 9.26943 1.27343 8.8753
135 1 9.92736 2.45712 9.72437
136 1 9.31994 2.91918 10.9834
105 1 11.8296 0.0101488 10.1355
119 1 10.0568 4.12402 1.1601
117 1 11.2913 4.10232 1.87838
157 1 11.3328 4.9189 4.17809
124 1 9.18021 3.70881 5.01453
146 1 11.3855 3.97031 3.30822
138 1 10.2186 5.74187 3.89366
161 1 10.2777 4.94223 8.31128
155 1 9.72347 4.77316 7.05922
133 1 11.4486 4.36918 8.8939
122 1 11.7791 3.7662 6.22739
125 1 10.4313 4.01175 6.05778
163 1 9.44619 5.61201 9.18789
113 1 9.86272 3.82653 11.855
132 1 11.2015 3.12199 9.46298
143 1 9.41135 6.11047 2.82495
168 1 11.139 7.60473 0.563201
149 1 9.69535 7.6531 5.41856
152 1 10.827 7.13612 6.19421
159 1 9.168 7.09184 8.9772
158 1 11.2905 7.02504 10.2119
164 1 10.4181 7.84684 9.49228
79 1 11.2299 6.74242 11.5198
172 1 10.0074 10.0659 4.56232
173 1 11.0291 10.7553 5.07982
175 1 9.42791 9.05859 5.30838
179 1 9.28849 10.6904 3.58403
182 1 11.2861 9.8532 8.11419
186 1 11.4828 11.032 7.29613
176 1 11.9937 10.5963 6.03074
187 1 10.2157 9.88624 10.5578
190 1 10.9942 11.1135 10.7664
183 1 10.5117 9.3033 9.2034
191 1 9.03 9.33326 11.045
ITEM: TIMESTEP
2000
ITEM: NUMBER OF ATOMS
191
ITEM: BOX BOUNDS pp pp pp
-1.1211425819485073e-01 1.2112114258194818e+01
-1.1211425819485073e-01 1.2112114258194818e+01
-1.1211425819485073e-01 1.2112114258194818e+01
ITEM: ATOMS id type x y z
4 1 1.65946 2.7308 1.2761
116 1 -0.0170082 0.998166 2.56528
5 1 2.85672 2.59365 2.13611
12 1 1.20782 0.675141 4.81994
118 1 0.208296 0.40143 3.86448
31 1 2.68614 0.957479 8.80372
32 1 1.23969 0.629434 8.57538
11 1 0.682824 0.697298 7.31031
17 1 2.53699 2.16962 6.15304
13 1 1.36611 1.34582 6.11716
28 1 0.270841 0.871782 9.61709
38 1 2.51334 1.867 10.9488
30 1 1.34826 2.55007 11.0412
29 1 0.162581 2.20613 10.2622
7 1 0.316181 4.95373 1.45496
6 1 0.958464 3.9275 0.801031
45 1 1.11433 5.84704 2.15724
14 1 2.17535 3.57006 6.53152
22 1 0.797637 3.88598 7.03698
63 1 0.724513 4.67353 8.30071
34 1 1.27152 3.86499 11.5827
64 1 1.77127 4.97723 10.7475
66 1 1.8668 4.79845 9.27728
39 1 0.167039 8.66232 0.911888
43 1 2.31253 8.15259 0.785613
42 1 1.30457 8.18452 1.65835
54 1 2.31186 6.64241 5.58352
50 1 1.97434 8.73059 3.92152
52 1 0.868273 6.49198 5.68411
40 1 0.872778 6.64612 3.26779
53 1 0.170506 6.36603 4.3964
60 1 2.70035 7.92958 4.9991
41 1 1.32163 7.89439 3.07273
108 1 1.41786 8.41374 8.81997
67 1 1.74386 7.13206 8.52075
59 1 0.106494 6.8466 6.88899
71 1 0.82394 6.21978 7.95512
77 1 1.97549 6.27368 11.3187
76 1 1.8127 7.67984 11.7753
75 1 1.35012 8.9567 11.1645
89 1 1.01379 10.6594 0.862257
84 1 1.21909 10.7142 2.23696
80 1 0.627535 9.70015 -0.102895
96 1 1.14743 10.5392 5.35651
21 1 1.97169 11.5576 4.91681
176 1 -0.133058 10.597 5.72726
83 1 2.07747 10.0288 3.2089
109 1 0.505721 9.10747 8.09645
107 1 1.9085 9.12797 9.87609
3 1 5.09991 1.26005 1.73605
1 1 3.87274 1.60864 1.87601
16 1 4.07754 0.175939 5.25315
18 1 3.91324 1.41991 5.78917
10 1 4.99238 1.98661 6.44201
24 1 5.60091 2.29671 8.7369
25 1 3.19339 2.00772 9.62222
26 1 5.80573 0.827915 8.87065
36 1 2.87263 0.580858 11.5918
48 1 4.02055 4.93168 0.500771
8 1 3.33518 3.90085 2.47378
46 1 4.3776 4.62738 1.90489
44 1 5.51171 5.03912 2.62601
56 1 4.93976 5.93541 5.73353
58 1 5.80184 4.62208 5.82796
51 1 3.49214 5.81053 6.04941
70 1 3.07293 5.1246 8.41047
57 1 2.95527 4.80727 6.86497
9 1 5.63303 2.90385 7.34887
78 1 4.90597 4.68151 11.6158
68 1 4.13429 4.47078 9.28124
69 1 4.94152 5.18773 10.2321
37 1 5.84469 3.53094 11.6876
27 1 4.28237 2.9524 9.3663
47 1 4.82796 7.6515 2.5303
82 1 4.65311 8.43898 1.38422
90 1 3.33276 9.07158 0.910405
49 1 5.69033 6.4935 2.75479
55 1 5.72046 7.21965 5.65143
92 1 4.81931 8.56357 3.64604
73 1 4.24424 7.81024 8.64137
62 1 5.4797 7.4279 8.08247
61 1 5.70355 8.0579 6.83092
65 1 3.14221 6.70661 8.58497
102 1 4.23854 9.05866 9.27501
72 1 5.62042 6.35665 10.0997
81 1 5.46292 7.49197 10.9273
88 1 3.73533 11.1262 1.79552
91 1 5.76269 9.45282 1.12195
85 1 3.37475 10.4694 0.603938
97 1 5.4962 10.2489 5.23869
94 1 5.58327 11.7557 5.22234
20 1 3.25614 11.7099 4.4536
87 1 3.38346 10.9896 3.10821
95 1 5.88684 9.47086 4.07356
93 1 5.29563 9.64039 6.58465
100 1 5.2273 10.609 7.74864
101 1 5.39544 9.88315 8.91187
33 1 3.51813 11.9953 9.00501
106 1 4.86728 12.0096 8.40538
98 1 3.28375 11.0346 10.0911
103 1 3.26697 11.3896 11.5867
99 1 3.11831 9.70188 9.85674
86 1 6.19975 9.90115 12.0059
114 1 8.76809 1.87805 0.41852
2 1 6.26425 1.27835 2.42448
15 1 6.83446 0.098706 4.84012
19 1 6.77772 0.668818 3.52915
123 1 9.10979 1.07774 5.34852
129 1 8.17152 0.366778 9.52158
130 1 8.15353 2.55371 11.5731
137 1 6.84133 0.41804 9.95285
134 1 6.81742 2.82384 11.1059
147 1 7.68235 4.34005 2.44572
139 1 8.96606 4.93311 2.19331
141 1 6.45658 4.21885 3.2552
150 1 8.13726 3.99227 4.94019
156 1 6.75229 4.31187 4.781
151 1 8.47599 5.40453 7.06015
166 1 7.44529 4.57138 7.75188
23 1 6.18064 4.17079 7.20024
167 1 7.61006 4.06825 9.12725
165 1 8.67648 4.57281 9.89955
35 1 6.70252 3.01318 9.62305
171 1 7.94207 8.29126 1.61573
140 1 8.23437 7.94016 0.297184
142 1 8.07606 7.34258 2.61988
145 1 8.92708 6.61505 0.342446
144 1 6.87625 6.84629 3.43411
148 1 6.98749 7.08492 4.85417
154 1 8.26574 7.1191 5.41275
153 1 8.17435 6.69704 6.75614
162 1 8.57897 7.67731 7.61672
184 1 8.3786 9.03428 7.43913
74 1 6.45656 6.84725 9.03338
188 1 8.02153 8.30571 11.0493
160 1 7.78008 7.37523 9.68128
110 1 6.70964 8.97977 11.0238
169 1 6.91746 9.2499 1.97729
174 1 8.09891 10.9144 3.13533
170 1 6.99244 10.0018 3.19863
121 1 8.15956 12.2793 5.57081
177 1 8.92942 9.61247 6.12933
178 1 8.73249 11.102 6.18509
180 1 7.83084 9.95669 8.683
181 1 8.32562 11.3754 8.6357
104 1 6.68436 9.55125 9.54844
115 1 10.9399 1.56844 2.1413
112 1 9.87543 1.53669 1.09219
111 1 10.352 2.17299 3.30364
126 1 11.1518 0.161538 4.41214
120 1 10.105 1.18643 4.35815
127 1 10.1486 0.592523 7.73956
189 1 11.5936 0.180555 7.35849
135 1 9.92882 2.53155 9.76299
131 1 9.39418 1.29094 8.93973
119 1 9.95194 4.50487 1.23452
117 1 11.2607 4.6612 1.91588
113 1 9.60497 4.13642 -0.100685
157 1 11.1419 5.84123 4.05497
124 1 9.58416 3.64095 5.02193
146 1 11.1092 4.55435 3.34153
128 1 10.4633 3.39492 3.87212
161 1 10.4228 5.125 8.40405
155 1 9.83136 4.92112 7.15422
122 1 11.806 3.85175 6.38951
125 1 10.4517 4.08018 6.20138
133 1 11.5401 4.42811 8.9181
163 1 9.4497 5.5487 9.32369
136 1 9.19734 3.40937 10.8765
132 1 11.3821 3.14343 9.61332
143 1 9.09788 6.28103 2.8071
168 1 11.1897 7.76977 0.506653
149 1 9.30602 7.65011 4.70513
138 1 10.0013 6.72949 3.80123
152 1 11.1499 7.44552 6.82406
159 1 8.95793 7.10748 8.97581
158 1 11.4226 7.38672 10.2281
164 1 10.5671 7.96965 9.25357
79 1 11.1581 7.17867 11.5796
172 1 10.2836 10.1144 4.2943
173 1 11.1381 11.0564 4.74352
179 1 9.37197 10.7843 3.34458
175 1 9.58393 9.07758 5.0112
182 1 11.6059 9.99908 8.11649
186 1 11.6753 10.9537 7.11729
185 1 9.32963 11.5928 7.60097
183 1 10.7484 9.40113 9.01053
187 1 10.1954 10.0806 10.1306
190 1 10.6442 11.4024 10.3115
105 1 11.8146 12.1116 10.318
191 1 9.04699 9.45199 10.9035
ITEM: TIMESTEP
3000
ITEM: NUMBER OF ATOMS
191
ITEM: BOX BOUNDS pp pp pp
-2.2590277262561934e-01 1.2225902772625572e+01
-2.2590277262561934e-01 1.2225902772625572e+01
-2.2590277262561934e-01 1.2225902772625572e+01
ITEM: ATOMS id type x y z
4 1 1.7009 2.77727 1.25333
12 1 0.920522 0.445507 4.84065
17 1 2.3999 2.0871 6.18979
32 1 1.3341 0.532271 8.79158
11 1 0.559527 0.480546 7.48594
13 1 1.16955 0.952987 6.18192
28 1 0.43592 0.681819 9.91927
38 1 2.52868 1.67591 10.9087
30 1 1.35502 2.61448 10.9552
29 1 0.240744 2.08379 10.2137
36 1 2.76402 0.443708 11.6232
7 1 0.0951387 4.44698 1.36667
6 1 0.876244 3.67788 0.491749
45 1 0.648129 5.45466 2.02632
14 1 1.85682 3.47048 6.36377
63 1 0.392981 5.14869 8.76371
22 1 0.480159 3.62484 6.36458
34 1 1.29212 3.91494 11.5952
64 1 1.89048 4.88601 10.7247
66 1 1.65718 4.80837 9.39163
42 1 1.30809 8.11263 1.42791
43 1 2.44937 8.05397 0.579366
41 1 1.21502 7.75764 2.76568
39 1 0.0673038 8.29804 0.615199
54 1 2.1771 6.8273 5.34722
50 1 1.84578 8.81054 3.51787
52 1 0.794341 6.51045 5.50767
40 1 0.785168 6.31074 3.09903
53 1 -0.116125 6.27224 4.26433
60 1 2.32468 8.08927 4.73046
108 1 1.46478 8.57645 8.9118
67 1 1.70325 7.24096 8.37431
59 1 0.14469 6.68803 6.71539
71 1 0.714886 6.28014 7.91564
77 1 2.02215 6.27246 11.1169
76 1 2.07622 7.53084 11.7553
75 1 1.3607 8.60782 11.1472
107 1 2.00603 9.11823 10.1
89 1 0.695709 10.4348 0.330709
84 1 1.14793 10.4894 1.71475
96 1 0.926725 10.6877 5.52522
21 1 1.65752 11.6748 4.81248
83 1 1.93009 10.1894 2.84523
87 1 3.17288 11.2923 3.00323
109 1 0.936752 9.61049 8.11809
80 1 0.471989 9.2524 12.0249
3 1 5.18106 1.4495 1.9646
1 1 3.93691 1.72887 1.69312
5 1 2.99228 2.90689 1.79019
16 1 3.989 0.101579 5.15085
18 1 3.68698 1.32586 5.91095
10 1 4.81351 2.00739 6.57297
24 1 5.7039 2.27418 8.78981
26 1 5.8808 0.591694 8.73362
9 1 5.69726 2.8764 7.30205
31 1 2.75261 0.635351 8.95209
25 1 3.18104 1.78026 9.60832
27 1 4.3535 2.6477 9.34219
48 1 4.70412 5.10546 0.433328
8 1 3.61341 3.92118 2.46771
46 1 4.55887 4.93656 1.87622
44 1 5.40093 5.52438 2.81355
58 1 5.91227 4.92334 5.57692
56 1 4.81049 6.09509 5.48989
51 1 3.1635 5.84099 5.8784
57 1 2.84597 4.68249 6.93392
70 1 2.98833 5.09773 8.40091
78 1 5.08119 4.46305 11.6559
68 1 4.24331 4.24211 9.11288
69 1 5.05764 4.85679 10.2312
37 1 6.07552 3.43949 11.9719
47 1 4.73823 7.95909 2.52464
82 1 4.68287 8.52539 1.20061
90 1 3.41565 9.1026 0.705712
55 1 5.59559 7.3396 5.60346
92 1 4.54393 8.93359 3.59493
49 1 5.61575 6.94835 2.83565
65 1 3.00002 6.72618 8.43674
62 1 5.47048 7.29579 8.04193
61 1 5.52135 8.27535 6.66797
73 1 4.12844 7.64239 8.5083
81 1 5.36922 6.98919 11.2776
72 1 5.65431 6.05469 10.2674
102 1 4.30228 8.87995 9.33534
88 1 3.59341 11.4427 1.74399
91 1 5.83331 9.30993 0.787317
85 1 3.59868 10.519 0.433472
97 1 5.48994 10.5269 5.28533
94 1 5.23309 11.9521 5.23309
95 1 5.727 9.81992 3.9747
20 1 2.9945 11.9015 4.30087
93 1 5.23699 9.8078 6.5601
100 1 5.0462 10.6019 7.83807
106 1 4.99653 12.0029 8.38451
101 1 5.43929 9.61363 9.03716
98 1 3.54211 11.0907 10.233
99 1 3.29054 9.71249 9.91184
103 1 3.28904 11.397 11.5731
33 1 3.63602 12.0202 9.176
114 1 8.89973 1.85736 0.394308
15 1 6.56771 0.039415 4.97577
19 1 6.6254 1.15926 4.10945
123 1 8.7737 0.878786 5.46313
2 1 6.16002 1.56934 2.92622
121 1 7.92497 -0.193353 5.7515
129 1 8.31462 0.296336 9.44108
130 1 8.39004 2.51145 11.7073
137 1 6.90634 0.385949 9.7038
134 1 7.04195 2.73193 11.2033
35 1 6.88132 2.95841 9.79398
147 1 7.70505 4.37296 2.24545
139 1 9.01699 4.98851 1.92466
141 1 6.66769 4.67146 3.23795
150 1 8.04282 4.20257 5.01694
156 1 6.74833 4.43396 4.60217
151 1 8.40668 5.3849 7.23997
166 1 7.18866 4.66853 7.79393
23 1 6.13435 4.22227 6.82726
165 1 8.70246 4.52852 10.0804
167 1 7.49147 4.04729 9.25858
171 1 7.81831 8.24949 1.30367
140 1 8.1148 7.69942 0.0997994
142 1 8.11186 7.38169 2.44193
145 1 8.39814 6.34051 -0.0455941
143 1 9.1138 6.47959 2.6485
144 1 6.95149 7.28816 3.39837
148 1 6.91534 7.40934 4.90229
154 1 8.14666 7.22849 5.50474
153 1 8.41791 6.76038 6.82437
162 1 8.74788 7.78584 7.80396
184 1 8.41823 9.2388 7.73975
74 1 6.42144 6.79963 9.26877
188 1 8.1865 8.42749 11.1961
160 1 7.72316 7.33143 9.84393
159 1 8.97065 7.0098 9.10636
169 1 6.83865 9.21101 1.67239
174 1 8.05588 10.4406 3.29365
170 1 6.95738 9.88307 2.96476
181 1 8.52852 11.4791 8.76387
178 1 8.76387 11.2129 6.44313
180 1 7.94383 10.1807 8.72224
177 1 8.9596 9.83739 6.4067
104 1 6.81484 9.86804 9.51844
110 1 7.13385 9.51869 10.8486
86 1 6.20973 9.70554 11.9187
115 1 10.7862 1.77573 2.53449
112 1 9.94169 1.82728 1.33065
116 1 12.1468 1.30091 2.83038
111 1 10.0905 2.30332 3.72987
126 1 11.0438 0.128723 4.55512
120 1 9.94013 1.20208 4.72168
118 1 12.3076 0.638485 4.00348
127 1 10.2942 0.349059 8.08742
189 1 11.6733 0.0255504 7.52384
135 1 10.1544 2.64203 9.83408
131 1 9.58792 1.17971 9.12835
105 1 12.0969 -0.308707 10.6448
119 1 10.0909 4.58017 1.09022
117 1 11.2236 4.34498 1.88584
128 1 10.1339 3.69079 4.01468
124 1 9.49225 4.0178 5.12336
146 1 11.0091 4.6236 3.37385
157 1 11.0282 5.92895 3.91556
161 1 10.3659 4.95093 8.61986
155 1 9.68612 4.74783 7.35825
133 1 11.6492 4.25966 8.89952
122 1 11.6482 3.68766 6.21863
125 1 10.2973 4.19351 6.25977
163 1 9.50942 5.6404 9.4951
136 1 9.3926 3.35536 10.9049
132 1 11.6406 2.95013 9.67337
113 1 10.0401 4.04894 12.1658
168 1 11.6758 7.22075 0.160588
149 1 9.33164 7.82434 4.79762
138 1 9.93663 6.86539 3.75466
152 1 11.3912 7.2895 6.80843
158 1 11.3678 7.23428 10.3253
79 1 10.9859 6.96091 11.5439
164 1 11.2359 8.07288 9.28986
191 1 9.52036 9.25853 11.1006
172 1 10.1796 10.0586 4.33879
173 1 11.079 11.1293 4.75295
176 1 12.0687 10.7685 5.82089
179 1 9.37394 10.3173 3.28036
175 1 9.69485 9.13071 5.28712
182 1 12.0682 10.1569 8.26032
186 1 11.7248 10.9748 7.24504
185 1 9.3426 11.8569 7.54411
187 1 10.6424 9.96019 10.488
190 1 11.1127 11.2828 10.8327
183 1 11.3625 9.40948 9.39185
ITEM: TIMESTEP
4000
ITEM: NUMBER OF ATOMS
191
ITEM: BOX BOUNDS pp pp pp
-1.7080363799403253e-01 1.2170803637994004e+01
-1.7080363799403253e-01 1.2170803637994004e+01
-1.7080363799403253e-01 1.2170803637994004e+01
ITEM: ATOMS id type x y z
12 1 1.12761 0.60677 4.72301
118 1 0.0750949 0.734846 3.80804
13 1 1.28252 1.36058 5.89424
17 1 2.50336 2.19908 6.05282
31 1 2.68184 0.92775 8.68555
32 1 1.29023 0.761397 8.2874
11 1 0.538507 0.777207 7.01985
28 1 0.280812 0.900972 9.39535
29 1 0.0702416 2.18665 10.0296
30 1 1.05648 2.63971 10.9373
38 1 2.14561 1.73107 10.9989
36 1 2.23705 0.487973 11.6681
7 1 -0.0242643 4.57195 1.34944
6 1 0.717424 3.72006 0.665808
45 1 0.686343 5.43278 2.20237
4 1 1.62563 2.77661 1.21894
14 1 2.07063 3.47591 6.6418
63 1 0.51871 4.98295 8.7907
22 1 0.623504 3.61482 6.37733
57 1 2.96924 4.59161 7.14909
34 1 1.03283 3.81916 11.6324
64 1 1.6662 4.85561 10.8917
66 1 1.76291 4.76121 9.46916
42 1 1.75343 7.64486 1.48936
43 1 2.86091 7.93511 0.618239
39 1 0.455096 7.87323 0.850299
41 1 1.68497 7.47106 2.90459
80 1 0.671089 8.99966 -0.187258
54 1 2.39455 6.60634 5.59752
50 1 2.17644 8.53566 3.64734
52 1 0.880543 6.3221 5.65146
40 1 1.00777 6.3303 3.25537
53 1 0.156444 6.13404 4.43563
60 1 2.49365 7.90887 4.93778
108 1 1.44235 8.44481 8.80498
67 1 1.82501 7.14441 8.56503
59 1 0.238621 6.52293 6.82559
71 1 0.810314 6.25576 7.96324
109 1 0.511537 9.01016 8.02742
77 1 2.07472 6.06975 11.4027
76 1 2.41602 7.42871 11.7502
75 1 1.57935 8.45372 11.1907
107 1 1.984 8.95614 9.96837
89 1 0.657913 10.1884 0.652145
84 1 0.95691 10.0727 2.02926
96 1 1.10397 10.7446 5.38985
21 1 1.82634 11.7635 4.79223
83 1 1.9933 9.90381 3.04763
87 1 3.08385 10.8992 3.09523
3 1 4.86635 1.72657 2.14423
1 1 3.56871 1.84435 2.04495
16 1 4.17304 0.214819 4.99284
18 1 3.80006 1.52487 5.69788
10 1 4.79169 2.04172 6.51584
24 1 5.48564 2.60688 8.82433
26 1 5.73409 0.3112 8.68768
9 1 5.61024 2.70386 7.44578
25 1 3.0375 1.91679 9.78128
27 1 4.30531 2.99036 9.50037
48 1 4.8561 4.99817 0.623427
5 1 2.88223 2.98811 1.78166
46 1 4.49458 4.85456 1.96433
8 1 3.27494 4.30988 2.14201
58 1 5.86973 4.50501 6.00898
56 1 4.98098 5.71096 6.13259
44 1 5.24981 5.44909 2.93933
70 1 3.19055 5.13294 8.80439
51 1 3.31398 5.62115 6.09368
78 1 5.22645 4.4432 11.8082
68 1 4.14407 4.4104 9.63405
69 1 5.03347 5.10619 10.5831
37 1 5.72807 3.16156 11.7943
47 1 4.86794 7.94773 2.30808
82 1 4.9472 8.51844 1.05162
49 1 5.53854 6.83878 2.81838
90 1 3.72985 8.99462 0.640621
55 1 5.64778 7.06974 5.82253
92 1 4.77045 8.95373 3.27563
73 1 4.26924 7.72225 8.90429
62 1 5.69276 7.533 8.22477
61 1 5.5937 8.10841 6.88102
65 1 3.28351 6.67354 8.68693
102 1 4.39246 9.07937 9.44125
72 1 5.82634 6.32813 10.5628
88 1 3.55562 11.1335 1.80414
85 1 3.46706 10.4845 0.432051
97 1 5.47832 10.2648 5.21856
94 1 5.46354 11.8179 5.28802
95 1 5.66554 9.83567 3.85803
20 1 3.16571 11.7193 4.28634
93 1 5.4032 9.62785 6.49189
100 1 5.01074 10.5349 7.68147
106 1 4.76878 11.8746 8.10554
33 1 3.4387 12.007 8.9678
101 1 5.47742 9.85884 8.80205
98 1 3.25961 11.1535 10.1233
103 1 3.11815 11.5081 11.6387
99 1 3.25782 9.68732 9.84857
114 1 8.89214 2.18502 0.336684
123 1 8.96441 0.624004 5.10529
19 1 6.59251 1.29008 4.14405
15 1 6.72643 0.201549 4.99395
2 1 5.8951 1.81152 3.17003
129 1 8.29884 0.385743 9.15987
137 1 6.97745 0.713243 9.12934
134 1 6.89794 2.66487 11.2202
147 1 7.45372 4.75723 2.50752
139 1 8.72071 5.36081 2.13437
156 1 6.65667 4.55304 4.80154
150 1 8.09194 4.07433 4.84223
141 1 6.28169 4.65173 3.46036
151 1 8.44492 5.17664 7.23108
166 1 7.41729 4.54401 7.91232
23 1 6.40476 3.87506 7.13228
165 1 8.58094 4.73576 10.0845
35 1 6.71246 3.05132 9.73866
136 1 8.65157 4.24529 11.4689
167 1 7.59453 4.06037 9.19184
130 1 8.1707 2.8995 11.7236
171 1 8.12881 8.72053 1.85162
142 1 8.04704 7.52408 2.79003
143 1 8.98673 6.50275 2.97085
144 1 6.84205 7.17322 3.58804
148 1 6.85352 7.14287 4.99812
154 1 8.1602 7.11024 5.55729
153 1 8.27534 6.52232 6.83711
162 1 8.62388 7.43881 7.81598
184 1 8.25404 9.04951 7.53796
188 1 8.0986 8.58969 10.7236
160 1 7.84579 7.43634 9.87051
74 1 6.5053 6.98892 9.36787
159 1 8.89417 6.93726 9.02523
81 1 6.46454 6.88001 11.7571
169 1 6.90445 9.52927 1.86038
91 1 6.06712 9.38442 0.748588
174 1 7.91462 10.8246 3.27905
170 1 6.67676 10.3271 2.94481
179 1 9.17432 10.5355 3.54222
121 1 8.0409 12.1319 5.51016
181 1 8.40755 11.4031 8.57884
178 1 8.5051 11.0859 6.18804
180 1 7.83658 10.0574 8.52287
177 1 8.65724 9.6388 6.34035
104 1 6.79497 9.8631 9.40285
110 1 7.01771 9.41213 10.6703
86 1 6.11222 9.79612 11.6921
115 1 10.6428 1.67535 2.1195
112 1 9.97641 1.83228 0.906427
116 1 12.1736 1.4144 2.47803
111 1 10.0975 2.16003 3.39429
120 1 10.0688 1.09844 4.38403
126 1 11.2772 0.0682819 4.16235
127 1 10.0737 0.254095 7.5297
189 1 11.4156 -0.0353083 7.12968
131 1 9.56094 1.06909 8.5551
135 1 10.1672 2.25466 9.06344
119 1 9.81565 5.10567 1.22569
117 1 10.9962 4.54865 1.8526
113 1 9.5107 4.9237 -0.0391486
128 1 10.3625 3.49042 3.94677
124 1 9.45005 3.8496 5.18118
146 1 10.8728 4.6417 3.31181
157 1 11.1413 5.93913 3.89788
161 1 10.4226 4.98796 8.6558
155 1 9.7494 4.66403 7.41665
125 1 10.2534 3.90977 6.33055
122 1 11.6311 3.69891 6.33635
133 1 11.5447 4.23643 9.0619
163 1 9.44356 5.65286 9.48914
132 1 11.4023 2.94581 9.47677
168 1 11.6999 7.02549 0.498882
140 1 9.42828 8.9759 1.18595
149 1 9.4124 7.66002 4.927
138 1 10.0704 6.84369 3.91871
175 1 9.549 9.07792 5.36401
152 1 11.2137 6.65869 6.81362
158 1 11.2186 6.88672 10.1801
79 1 11.4309 6.81656 11.4952
164 1 10.8369 7.64888 9.20788
145 1 9.94113 9.30727 -0.041511
172 1 10.2384 10.0379 4.37482
173 1 11.2204 11.0045 4.62084
176 1 12.1644 10.6208 5.70895
185 1 9.15159 11.5717 7.38536
186 1 11.6809 10.7777 7.02544
182 1 11.6357 9.8074 8.04637
183 1 10.9549 9.0891 9.09327
187 1 10.341 9.91002 10.049
190 1 11.0125 11.1933 10.1275
191 1 9.49824 9.34563 11.0143
105 1 11.8151 12.1741 9.77364
ITEM: TIMESTEP
5000
ITEM: NUMBER OF ATOMS
191
ITEM: BOX BOUNDS pp pp pp
-1.1525677458537530e-01 1.2115256774585372e+01
-1.1525677458537530e-01 1.2115256774585372e+01
-1.1525677458537530e-01 1.2115256774585372e+01
ITEM: ATOMS id type x y z
4 1 1.52554 2.77437 1.70319
5 1 2.77758 2.49199 2.2852
12 1 1.16477 0.538205 4.84257
118 1 0.0911069 0.657595 3.82252
11 1 0.615313 0.770206 7.21986
32 1 1.33844 0.824955 8.54833
31 1 2.89576 0.903144 8.83356
17 1 2.48834 2.2114 6.20967
13 1 1.34773 1.32512 6.07507
28 1 0.431239 1.08631 9.63952
29 1 0.365763 2.40405 10.2173
30 1 1.45297 2.67764 11.054
38 1 2.63558 1.94821 10.8407
7 1 0.279194 4.74807 1.37128
6 1 1.1347 3.82045 0.864044
45 1 1.04637 5.58734 2.16745
14 1 2.25538 3.65558 6.52022
63 1 0.641215 5.07835 8.6795
22 1 0.750407 3.68826 6.31095
34 1 1.34413 3.95023 11.7031
64 1 1.85883 5.15246 10.9828
66 1 1.81983 4.89747 9.59349
42 1 1.23575 8.10812 1.51547
43 1 2.35258 8.50772 0.59107
41 1 1.4005 7.77528 2.81295
54 1 2.65098 6.98627 5.43352
50 1 2.0322 8.78731 3.60096
52 1 1.325 6.45349 5.48734
40 1 1.04257 6.47905 3.14272
53 1 0.494597 6.07859 4.3543
108 1 1.5043 8.68667 8.58266
67 1 1.78849 7.38329 8.51837
59 1 0.477168 6.62868 6.65962
71 1 0.946604 6.34255 7.87767
75 1 1.1788 9.05673 10.9993
76 1 2.0237 7.96984 11.5224
77 1 2.10078 6.50233 11.4065
89 1 0.363742 10.4909 0.682232
84 1 0.855948 10.5857 1.99625
96 1 1.03364 10.5193 5.3969
21 1 1.77249 11.5688 4.91591
83 1 1.90269 10.1266 2.95511
109 1 0.706889 9.25402 7.67876
107 1 1.80676 9.37437 9.73788
80 1 0.197461 9.33046 12.1078
105 1 -0.411167 12.3768 10.3182
3 1 4.52224 0.304687 1.97018
1 1 3.84887 1.5197 1.72953
2 1 5.70064 0.398961 2.47973
16 1 4.04639 0.0331505 5.23469
18 1 3.8405 1.58111 5.73109
10 1 4.94653 2.03176 6.46953
24 1 5.55591 2.80315 8.70288
26 1 6.05513 0.302134 8.58576
9 1 5.67704 2.91808 7.26156
25 1 3.26966 2.07963 9.54746
36 1 2.88761 0.776604 11.6574
48 1 4.17062 4.54691 0.659065
44 1 5.31691 5.38426 2.64621
46 1 4.29596 4.60272 2.11261
8 1 3.42843 3.79882 2.90885
51 1 3.52375 5.86369 6.29058
58 1 5.77134 4.7769 5.71989
70 1 3.08167 5.10151 8.74086
57 1 2.85024 4.84761 6.95275
78 1 4.81361 4.21097 11.7156
68 1 4.19028 4.51026 9.33697
69 1 4.85854 5.12528 10.4923
37 1 5.82227 3.15691 11.6985
27 1 4.27514 3.11904 9.13208
47 1 4.64589 7.81913 2.60653
82 1 4.62957 8.51561 1.33662
49 1 5.54743 6.78488 2.85858
55 1 5.5576 7.20489 5.7193
92 1 4.31703 8.47408 3.85993
60 1 3.06472 8.13616 4.49285
56 1 4.87874 5.92354 5.7406
65 1 3.0874 6.80332 8.81916
62 1 5.40999 7.40456 8.38587
61 1 5.53099 8.13445 7.0225
73 1 4.16517 7.6239 9.02779
102 1 4.15224 8.87649 9.62043
72 1 5.67399 6.39311 10.5447
88 1 3.79663 11.3101 1.93197
85 1 3.49938 10.7755 0.623084
91 1 5.85502 9.09615 0.910991
90 1 3.46114 9.24725 0.820205
97 1 5.28757 10.1147 5.50626
94 1 5.24023 11.5418 5.44762
95 1 5.3426 9.45947 4.21154
20 1 3.12826 11.4554 4.35859
87 1 3.01909 11.0164 3.08335
93 1 5.35026 9.53899 6.81917
100 1 5.05835 10.4846 7.87073
106 1 4.90782 11.8585 8.29337
101 1 5.30799 9.76721 9.17825
33 1 3.77375 12.0708 8.98563
98 1 3.32647 11.1781 10.1715
103 1 3.37488 11.5633 11.613
99 1 3.07009 9.76503 9.96972
114 1 9.07916 1.95512 -0.146831
123 1 8.86044 0.837099 5.09167
19 1 6.4921 0.471603 3.58888
15 1 6.53093 -0.187046 4.97056
134 1 6.95709 2.68687 10.8623
130 1 8.33538 2.92601 11.4277
137 1 7.14273 0.788866 9.28976
129 1 8.46999 0.440066 9.07917
147 1 7.72813 4.37445 2.29594
139 1 8.93696 5.04173 2.15714
156 1 6.66688 4.35733 4.53275
150 1 7.97822 3.76199 4.98529
141 1 6.46927 4.59731 3.157
151 1 8.53513 5.28823 7.04819
166 1 7.55624 4.47435 7.5507
23 1 6.22318 4.14715 6.89469
167 1 7.64012 4.05234 8.94538
165 1 8.54358 4.69618 9.9613
136 1 8.82929 4.19914 11.1882
35 1 6.77801 3.04181 9.39902
171 1 8.00983 8.3526 1.91789
142 1 8.01219 7.24892 2.81035
143 1 9.10224 6.27415 2.9682
169 1 6.82039 9.08249 1.9988
144 1 6.7975 7.03824 3.55027
148 1 6.80544 7.0943 4.9525
154 1 8.10139 7.08429 5.49957
153 1 8.33711 6.66188 6.79845
162 1 8.78456 7.59708 7.83868
184 1 8.31197 9.13801 7.67785
159 1 8.81414 6.92147 9.03555
188 1 8.10518 8.59953 10.7195
160 1 7.74756 7.42599 9.77494
74 1 6.35417 7.08586 9.42042
81 1 6.10563 6.91002 11.7769
174 1 7.63675 10.4148 3.58037
170 1 6.43815 9.64422 3.26696
179 1 8.88587 10.4474 3.40357
121 1 7.98403 11.9727 5.4193
181 1 8.61944 11.3848 8.54471
178 1 8.74556 11.0788 6.20245
180 1 7.78473 10.2146 8.61038
177 1 8.6624 9.66007 6.3301
104 1 6.67209 9.83631 9.63084
110 1 7.02585 9.44297 10.9409
86 1 6.32527 9.80037 12.0978
115 1 10.8042 1.68766 2.07887
112 1 9.97414 1.67654 0.917396
116 1 12.137 1.28032 2.47854
111 1 10.0841 2.11913 3.28563
120 1 9.93604 1.05478 4.25502
126 1 11.044 0.0810963 4.29929
127 1 10.3647 0.613237 7.61724
189 1 11.5773 0.0853899 7.25535
131 1 9.72115 1.22463 8.79238
135 1 10.3646 2.3753 9.32767
119 1 9.9582 4.87763 1.2305
117 1 11.2173 4.54596 1.89254
128 1 10.21 3.32711 3.9412
124 1 9.42178 3.61584 5.02977
146 1 11.1264 4.38712 3.38224
157 1 11.1986 5.69029 4.12613
161 1 10.4334 5.00997 8.53905
155 1 9.87195 4.67809 7.22039
125 1 10.3183 3.69473 6.28296
133 1 11.5798 4.45414 8.99477
122 1 11.6967 3.17832 6.27981
163 1 9.44334 5.60538 9.29281
132 1 11.5091 3.13829 9.65079
113 1 9.79442 4.67796 12.1014
168 1 11.3898 7.3154 0.340742
39 1 12.249 8.28576 0.720761
140 1 9.23835 8.82097 1.2498
149 1 9.42379 7.49772 4.91398
138 1 10.0904 6.57238 4.06882
175 1 9.44361 8.99306 5.21505
152 1 11.5784 7.54238 6.49537
158 1 11.0838 7.01613 10.0552
79 1 10.9117 6.94944 11.3626
164 1 11.1525 7.9416 9.07949
145 1 9.79456 8.87339 0.02253
172 1 9.94442 9.96277 4.24823
173 1 11.012 10.8682 4.63243
176 1 11.9806 10.7033 5.72639
185 1 9.43348 11.6761 7.39674
186 1 11.5075 10.9102 7.04473
182 1 11.6173 9.87256 7.87769
187 1 10.5936 10.0593 10.1252
190 1 11.0342 11.3208 10.6853
191 1 9.51175 9.20019 10.8458
183 1 11.1042 9.33598 9.0757
ITEM: TIMESTEP
6000
ITEM: NUMBER OF ATOMS
191
ITEM: BOX BOUNDS pp pp pp
-1.4314689110424433e-01 1.2143146891104228e+01
-1.4314689110424433e-01 1.2143146891104228e+01
-1.4314689110424433e-01 1.2143146891104228e+01
ITEM: ATOMS id type x y z
116 1 -0.272701 1.36075 2.55674
12 1 1.02686 0.747726 4.83365
118 1 -0.159456 0.877223 3.93162
11 1 0.556027 0.778591 7.28087
32 1 1.30784 0.709503 8.52062
31 1 2.68045 0.970038 8.77631
17 1 2.42319 2.04039 6.35092
13 1 1.19718 1.34978 6.0392
28 1 0.344433 0.880192 9.60365
29 1 0.216616 2.40825 9.91315
30 1 1.25061 2.74058 10.8363
38 1 2.39475 1.97748 10.829
36 1 2.66718 0.891281 11.6849
7 1 0.172504 4.49807 1.64047
6 1 1.08932 3.76242 0.819897
45 1 0.963556 5.50232 2.26958