ITEM: TIMESTEP
1000
ITEM: NUMBER OF ATOMS
191
ITEM: BOX BOUNDS pp pp pp
0.0000000000000000e+00 1.2000000000000000e+01
0.0000000000000000e+00 1.2000000000000000e+01
0.0000000000000000e+00 1.2000000000000000e+01
ITEM: ATOMS id type x y z
12 1 1.20509 0.848646 4.8824
1 1 2.45416 2.21262 3.44646
118 1 0.0568909 0.931156 4.21542
31 1 2.7963 1.20012 8.59879
32 1 1.33362 1.11411 8.47168
11 1 0.524598 1.20419 7.34151
17 1 2.71238 2.40746 6.16634
13 1 1.38231 1.67759 6.10224
28 1 0.600435 1.06936 9.68613
29 1 0.380463 2.49177 10.0643
30 1 1.54051 2.88833 10.6729
38 1 2.76966 2.1392 10.5977
4 1 2.18611 3.42645 1.49308
6 1 1.37529 4.1638 0.681185
7 1 0.316389 4.7799 1.23673
5 1 2.72351 3.38718 2.80547
53 1 0.358511 5.83537 4.1516
14 1 2.48962 3.77126 6.47623
22 1 1.04066 4.12647 6.92577
63 1 0.861504 4.89394 8.19573
34 1 1.60511 4.1806 11.3394
64 1 1.84804 5.17285 10.4568
66 1 1.97643 4.87993 9.13738
39 1 0.181589 8.50532 0.712513
43 1 2.65505 8.15867 0.868042
42 1 1.41328 7.99508 1.5577
45 1 0.410238 6.0196 1.6437
40 1 0.607622 6.50916 2.98891
41 1 1.37971 7.70322 2.91852
54 1 2.3679 6.52629 5.21292
50 1 2.14686 8.46843 3.69532
52 1 1.04645 6.21113 5.25484
60 1 2.43505 7.90596 4.88676
59 1 0.319578 6.54721 6.41356
67 1 1.82448 7.31926 8.10585
71 1 0.824954 6.39916 7.65354
108 1 1.50378 8.72625 8.5489
75 1 1.63839 8.73584 10.9
76 1 2.39605 7.75422 11.4558
77 1 2.36185 6.3648 11.1126
89 1 1.68557 10.4378 0.778156
84 1 1.26087 10.293 2.26055
96 1 1.39937 10.5244 5.80047
21 1 1.92503 11.6793 5.0829
83 1 1.97272 9.86486 3.45811
109 1 0.460584 9.13924 7.92927
107 1 1.96788 9.23301 9.68906
80 1 0.964113 9.47731 11.8748
3 1 3.46182 1.23958 3.5408
16 1 4.12741 0.164967 5.50129
2 1 4.94593 1.47411 3.18049
9 1 5.79569 2.82726 7.153
24 1 5.70492 2.43076 8.65892
26 1 5.83625 0.933983 8.58776
10 1 5.33926 2.06308 6.16372
18 1 3.95423 1.52412 6.0336
25 1 3.47206 2.22466 9.36298
36 1 3.1563 1.05003 11.3995
48 1 4.33373 4.65548 0.709691
44 1 5.99016 5.22315 2.44868
46 1 4.83482 4.57961 2.03733
8 1 3.91788 4.06314 2.96916
58 1 5.89245 4.77236 5.62939
56 1 5.05263 5.94244 5.47293
51 1 3.61934 5.79543 5.77172
70 1 3.40603 5.25056 8.37877
57 1 3.29911 4.88631 6.83742
78 1 5.12797 4.29346 11.5245
68 1 4.40579 4.42649 9.42396
69 1 5.059 5.21573 10.3426
27 1 4.47806 3.0505 9.22505
47 1 5.19546 7.94796 2.43487
82 1 4.90455 8.78538 1.39948
92 1 5.0144 8.61295 3.70179
55 1 5.95341 7.18716 5.53858
73 1 4.19161 7.74413 8.55678
62 1 5.53684 7.49362 7.95057
65 1 3.19209 6.8109 8.4114
61 1 5.63671 8.06901 6.60218
72 1 5.55993 6.5066 10.3029
81 1 5.54413 7.76087 11.0694
88 1 3.49987 11.0428 2.1632
85 1 3.16455 10.4098 1.00517
91 1 5.91697 9.71594 1.04399
90 1 3.67653 9.11918 1.0001
94 1 5.51007 11.7138 5.47563
97 1 5.54044 10.2859 5.25334
87 1 3.11333 10.7168 3.43176
20 1 3.18504 11.8843 4.2963
95 1 5.89847 9.73487 4.04418
93 1 5.64775 9.60237 6.45837
100 1 5.39615 10.4731 7.59658
101 1 5.51693 9.71445 8.84227
106 1 4.93343 11.8978 7.96221
33 1 3.59975 11.9983 8.55921
98 1 3.50555 11.1841 9.68144
103 1 3.22428 11.7935 10.9441
99 1 3.27887 9.79207 9.59418
102 1 4.32834 9.07969 9.01661
114 1 8.60925 1.0636 0.341457
15 1 6.28686 1.03729 5.36838
19 1 6.14573 1.31933 3.9212
121 1 7.76238 0.614062 5.91285
128 1 8.88866 2.97665 3.70562
129 1 8.35478 0.18746 9.37563
130 1 8.26103 2.13424 11.4211
137 1 7.02759 0.504277 9.32774
134 1 6.96563 2.54662 10.8961
35 1 6.87822 2.8466 9.43909
147 1 8.12484 3.78741 2.81579
139 1 8.95702 4.71955 2.11283
141 1 6.86754 4.534 3.29409
150 1 8.14886 4.52859 5.47536
156 1 6.87198 4.6036 4.71775
151 1 8.27125 5.07366 6.80782
166 1 7.22697 4.60737 7.64401
23 1 6.11789 4.13615 6.99852
167 1 7.57641 4.01855 8.90824
165 1 8.33637 4.89564 9.7276
37 1 6.09022 3.28999 11.648
49 1 6.32647 6.66491 2.15676
140 1 7.99375 7.68454 0.383597
142 1 8.58072 7.38481 2.5869
145 1 6.96274 6.67636 0.681379
171 1 8.11027 8.45739 1.63405
144 1 7.31434 7.04926 3.2988
148 1 7.18411 7.1601 4.73754
154 1 8.35935 7.1502 5.53352
153 1 8.1698 6.55922 6.73473
162 1 8.58165 7.49694 7.74916
184 1 8.14193 8.93666 7.51019
188 1 7.99517 8.26872 11.0671
74 1 6.48352 6.90777 9.14608
160 1 7.81743 7.2395 9.89896
169 1 7.09657 9.53003 1.87342
174 1 7.97704 10.9841 3.56656
170 1 6.93637 10.1165 3.21665
177 1 8.34338 9.55504 6.12299
178 1 8.10362 11.1346 6.34415
180 1 7.89147 9.70405 8.60484
181 1 8.60636 10.9521 8.71045
185 1 8.91145 11.4014 7.40967
104 1 6.73251 9.58153 9.41521
110 1 6.49943 9.08283 10.8292
86 1 6.07477 10.1283 11.7812
115 1 10.3233 1.23323 2.44296
116 1 11.6482 0.993539 2.82226
112 1 9.70433 1.22206 1.2498
111 1 9.4857 1.66562 3.53701
126 1 10.9251 0.207048 4.75638
120 1 9.76984 1.11383 4.82804
123 1 9.07273 1.35593 5.95414
127 1 9.85358 0.871564 7.35898
189 1 11.3665 0.497339 7.24559
131 1 9.26943 1.27343 8.8753
135 1 9.92736 2.45712 9.72437
136 1 9.31994 2.91918 10.9834
105 1 11.8296 0.0101488 10.1355
119 1 10.0568 4.12402 1.1601
117 1 11.2913 4.10232 1.87838
157 1 11.3328 4.9189 4.17809
124 1 9.18021 3.70881 5.01453
146 1 11.3855 3.97031 3.30822
138 1 10.2186 5.74187 3.89366
161 1 10.2777 4.94223 8.31128
155 1 9.72347 4.77316 7.05922
133 1 11.4486 4.36918 8.8939
122 1 11.7791 3.7662 6.22739
125 1 10.4313 4.01175 6.05778
163 1 9.44619 5.61201 9.18789
113 1 9.86272 3.82653 11.855
132 1 11.2015 3.12199 9.46298
143 1 9.41135 6.11047 2.82495
168 1 11.139 7.60473 0.563201
149 1 9.69535 7.6531 5.41856
152 1 10.827 7.13612 6.19421
159 1 9.168 7.09184 8.9772
158 1 11.2905 7.02504 10.2119
164 1 10.4181 7.84684 9.49228
79 1 11.2299 6.74242 11.5198
172 1 10.0074 10.0659 4.56232
173 1 11.0291 10.7553 5.07982
175 1 9.42791 9.05859 5.30838
179 1 9.28849 10.6904 3.58403
182 1 11.2861 9.8532 8.11419
186 1 11.4828 11.032 7.29613
176 1 11.9937 10.5963 6.03074
187 1 10.2157 9.88624 10.5578
190 1 10.9942 11.1135 10.7664
183 1 10.5117 9.3033 9.2034
191 1 9.03 9.33326 11.045
ITEM: TIMESTEP
2000
ITEM: NUMBER OF ATOMS
191
ITEM: BOX BOUNDS pp pp pp
-1.1156851682398887e-01 1.2111568516823970e+01
-1.1156851682398887e-01 1.2111568516823970e+01
-1.1156851682398887e-01 1.2111568516823970e+01
ITEM: ATOMS id type x y z
12 1 1.218 0.591961 4.78601
118 1 0.230727 0.342151 3.84614
13 1 1.24086 1.37061 6.054
31 1 2.69032 0.934795 8.73352
32 1 1.24822 0.795876 8.66713
11 1 0.566874 0.838979 7.25445
17 1 2.47552 2.16082 5.99454
28 1 0.31929 0.910962 9.72499
38 1 2.64122 2.0844 10.767
30 1 1.48144 2.78193 10.9237
29 1 0.29484 2.35683 10.2244
7 1 0.477301 4.77356 1.46995
6 1 1.24267 3.83101 0.703337
45 1 1.06855 5.77952 2.13196
4 1 1.962 2.78403 1.31322
53 1 0.341707 6.1949 4.31097
14 1 2.19277 3.53741 6.66239
22 1 0.86878 3.89518 7.0757
63 1 0.708357 4.784 8.33602
34 1 1.55301 4.15626 11.5117
64 1 1.90103 5.14552 10.6468
66 1 1.8241 4.84386 9.1793
39 1 0.233482 8.5922 0.944607
43 1 2.33208 8.15103 0.654464
42 1 1.31928 8.19204 1.69097
54 1 2.37625 6.60425 5.61666
50 1 2.04651 8.7607 3.81106
52 1 0.951764 6.28815 5.66571
40 1 1.02973 6.47777 3.23433
60 1 2.47413 7.94339 5.07667
41 1 1.46022 7.78622 2.94556
108 1 1.41225 8.4391 8.55918
67 1 1.74891 7.09104 8.23236
71 1 0.551564 6.35185 7.96286
59 1 -0.177538 6.60344 6.74073
109 1 0.253245 9.02071 7.98378
77 1 2.08827 6.37825 11.288
76 1 1.77844 7.71441 11.5933
75 1 1.22694 8.95195 11.0754
89 1 1.39085 10.7165 0.848941
84 1 1.14021 10.5514 2.2271
80 1 0.704779 9.7065 -0.0171241
83 1 1.98048 10.0962 3.38934
21 1 1.87728 11.6525 5.21306
96 1 1.19016 10.5668 5.70757
176 1 -0.1254 10.7107 6.00753
107 1 1.84833 9.20166 9.83043
3 1 4.80837 0.569034 2.01221
1 1 3.74867 1.37703 1.9574
2 1 6.04341 0.748043 2.51639
5 1 3.1595 2.58898 2.12137
16 1 4.15057 0.04239 5.47643
18 1 3.85392 1.40821 5.8727
26 1 5.83732 0.905096 8.82447
24 1 5.59146 2.31594 8.62201
10 1 5.06672 1.97965 6.2451
25 1 3.21652 2.14551 9.47471
36 1 2.9132 0.958131 11.6545
48 1 4.20566 4.85934 0.538187
44 1 5.68207 5.30385 2.71856
46 1 4.65628 4.63409 1.87586
8 1 3.94445 3.64184 2.49458
56 1 5.04397 5.72988 5.72779
51 1 3.55573 5.78696 5.99488
70 1 3.10743 5.20135 8.5282
57 1 3.15897 4.65828 6.97043
9 1 5.65925 2.88017 7.24373
78 1 4.86218 4.65026 11.6128
68 1 4.17272 4.49632 9.24322
69 1 4.80702 5.22029 10.2897
37 1 5.69586 3.50896 11.6475
27 1 4.26688 3.03574 9.20468
47 1 5.08339 7.80082 2.33474
82 1 4.71349 8.77272 1.31761
92 1 5.0049 8.35473 3.66437
73 1 4.09745 7.78378 8.57787
62 1 5.51802 7.47764 8.0887
61 1 5.80343 8.09559 6.77743
102 1 4.28021 9.09939 9.23839
65 1 3.11242 6.76878 8.42903
72 1 5.36838 6.46688 10.0648
81 1 5.59626 7.66324 10.9112
88 1 3.84683 11.238 2.11439
85 1 3.24244 10.7785 0.568183
91 1 5.75778 9.63758 1.04584
90 1 3.36349 9.14741 0.767241
87 1 3.17104 10.9836 3.30526
94 1 5.51607 11.8109 5.37584
20 1 3.17655 11.6303 4.5662
97 1 5.63866 10.4147 5.2966
95 1 5.80728 9.61119 4.16035
93 1 5.38302 9.57535 6.62362
100 1 5.26509 10.6584 7.78833
101 1 5.43064 9.81413 8.87301
106 1 4.78444 12.1006 8.27773
33 1 3.50686 12.0723 9.02342
98 1 3.2685 11.1634 10.0889
99 1 3.18286 9.65663 9.93585
103 1 3.23588 11.7238 11.4613
86 1 5.92128 10.0608 11.89
114 1 8.57049 1.90664 0.401413
15 1 6.78892 0.227989 4.98069
19 1 6.77345 0.720453 3.62464
121 1 8.12956 0.0219257 5.66977
129 1 8.23715 0.427594 9.44688
130 1 8.0047 2.52877 11.4905
137 1 6.85961 0.584501 9.90335
134 1 6.73865 2.79178 11.0202
147 1 7.82254 4.77368 2.34324
139 1 9.0662 5.31077 1.90215
141 1 6.73077 4.54974 3.2775
150 1 8.25817 3.6749 4.97777
156 1 6.96712 4.22578 4.6874
58 1 5.95653 4.56064 5.70174
151 1 8.5635 5.18691 7.00362
166 1 7.47162 4.49498 7.74053
23 1 6.21507 4.16785 7.12389
167 1 7.48939 4.05885 9.06224
165 1 8.61156 4.30853 9.89321
35 1 6.58421 3.03435 9.50425
171 1 7.93836 8.46519 1.45797
140 1 7.68333 7.69965 0.440525
142 1 8.29552 7.57073 2.55302
145 1 6.66309 6.58474 0.777834
49 1 5.98363 6.63256 2.29049
144 1 7.15838 7.11733 3.25972
148 1 7.08248 6.88166 4.79325
154 1 8.33839 6.96586 5.48199
55 1 5.80762 7.07538 5.55558
153 1 8.34077 6.60384 6.80563
162 1 8.52137 7.58649 7.67632
184 1 8.40294 8.96286 7.60778
188 1 7.76201 8.32049 11.1918
160 1 7.71493 7.32382 9.73397
74 1 6.40751 6.84719 9.0216
110 1 6.49352 8.98932 10.8539
159 1 8.91787 7.05019 9.03435
169 1 6.93237 9.44938 1.80327
170 1 6.90251 10.0332 3.18618
174 1 8.07881 10.7624 3.48198
177 1 8.87697 9.69529 6.38112
178 1 8.67142 11.1217 6.32737
180 1 7.81442 9.83598 8.74708
181 1 8.44554 11.2667 8.81851
185 1 9.4029 11.5808 7.68963
104 1 6.68094 9.60743 9.54099
191 1 8.93536 9.40319 10.8902
115 1 10.8348 1.53316 2.09062
112 1 9.69546 1.53837 1.07314
116 1 12.0997 0.978091 2.65965
111 1 10.2255 2.08466 3.29216
120 1 10.1342 1.05784 4.3798
123 1 9.07281 0.989616 5.24381
126 1 11.207 0.152471 4.53864
127 1 10.1516 0.57908 7.928
189 1 11.4375 0.181677 7.43003
135 1 10.1266 2.50965 9.76765
131 1 9.46565 1.27559 9.01471
132 1 11.4286 3.0344 9.58315
119 1 10.0566 4.63994 1.06309
117 1 11.3196 4.55563 1.80823
128 1 10.5075 3.3376 3.77959
124 1 9.73123 3.68554 4.97599
146 1 11.1163 4.4427 3.22323
157 1 11.2819 5.6945 3.85977
161 1 10.4858 5.03521 8.53057
155 1 9.92131 4.82438 7.08126
125 1 10.553 4.10249 6.07659
133 1 11.5853 4.38916 8.93486
122 1 11.864 3.71656 6.35706
163 1 9.36889 5.44779 9.27678
136 1 9.2932 3.39881 10.7995
113 1 9.74422 4.22498 12.0353
143 1 9.27752 6.56314 2.78743
168 1 11.2258 7.93071 0.805776
149 1 9.78481 7.47568 5.11649
138 1 10.1268 6.58858 3.8851
152 1 10.9454 7.15764 6.07901
158 1 10.9869 7.46844 10.4125
164 1 10.3292 7.96925 9.29917
79 1 10.8717 7.35643 11.7315
172 1 10.3004 10.0662 4.56147
173 1 11.2435 11.0418 4.91545
179 1 9.39264 10.5288 3.58875
175 1 9.68907 9.02338 5.28716
182 1 11.4037 9.89542 8.17983
186 1 11.5527 11.0141 7.25024
183 1 10.46 9.38056 9.03441
187 1 10.0601 9.93696 10.2022
190 1 10.6387 11.2512 10.4079
105 1 11.6257 12.1189 10.0836
ITEM: TIMESTEP
3000
ITEM: NUMBER OF ATOMS
191
ITEM: BOX BOUNDS pp pp pp
-2.0370116921047651e-01 1.2203701169210497e+01
-2.0370116921047651e-01 1.2203701169210497e+01
-2.0370116921047651e-01 1.2203701169210497e+01
ITEM: ATOMS id type x y z
12 1 0.90485 0.663088 4.94734
118 1 -0.160296 0.65529 4.0536
31 1 2.56258 0.867494 8.91793
32 1 1.05071 0.819039 8.72627
11 1 0.455203 0.845296 7.43292
17 1 2.35784 2.19029 6.16614
13 1 1.17077 1.36496 6.10607
28 1 0.122767 0.713517 9.78043
38 1 2.40188 1.78384 10.9914
30 1 1.14662 2.54289 10.978
29 1 -0.0143666 2.01553 10.3358
36 1 2.80682 0.47591 11.527
7 1 0.242107 4.66017 1.18892
6 1 1.01906 3.81086 0.445477
45 1 0.919524 5.74598 1.76393
4 1 1.86769 3.07145 1.18548
14 1 2.06152 3.57408 6.57714
22 1 0.65609 3.87793 7.0464
63 1 0.509748 4.7869 8.31121
34 1 1.22137 3.89229 11.4432
64 1 1.72149 5.03831 10.6757
66 1 1.71437 4.83257 9.19368
39 1 0.540485 8.43269 0.860652
42 1 1.78495 8.05572 1.49677
43 1 2.79568 8.06671 0.555556
54 1 2.34779 6.68956 5.62121
50 1 2.25667 8.70828 3.77398
52 1 0.862179 6.2878 5.46643
40 1 1.2401 6.3917 3.00859
53 1 0.303135 6.23757 4.14934
41 1 1.97956 7.55721 2.76678
60 1 2.492 8.13442 5.04747
108 1 1.30224 8.2889 8.93547
67 1 1.59914 7.12399 8.3469
71 1 0.455966 6.33748 7.80537
59 1 -0.0508503 6.74028 6.49221
77 1 1.96949 6.22484 11.2482
76 1 2.3163 7.57413 11.7541
75 1 1.62677 8.91434 11.1608
89 1 1.74848 10.5083 0.703085
84 1 1.3178 10.3925 2.18528
80 1 0.952075 9.55879 -0.107113
83 1 2.15937 10.0117 3.32243
21 1 1.60728 11.8456 4.85676
96 1 1.07017 10.7593 5.5821
109 1 0.20338 8.86172 8.37151
107 1 1.98051 9.12767 9.75123
3 1 4.32025 0.218545 1.89437
1 1 3.34108 1.27309 1.70092
2 1 5.55806 0.572859 2.51964
5 1 2.96782 2.68201 1.89384
16 1 4.01867 0.23333 5.17324
18 1 3.7213 1.70622 5.80222
26 1 5.74547 0.724513 8.61105
24 1 5.52426 2.30678 8.77057
10 1 4.6484 2.54078 6.49801
25 1 3.13288 1.95059 9.77114
27 1 4.17018 2.84654 9.31876
48 1 4.29091 5.00374 0.36057
44 1 5.59676 5.30035 2.35466
46 1 4.6584 4.68439 1.6775
8 1 3.8635 3.76473 2.33834
56 1 5.03236 5.90386 5.62024
70 1 3.11487 5.04054 8.5202
57 1 2.9579 4.73857 7.03868
9 1 5.58379 2.97922 7.42901
51 1 3.42106 5.76131 6.0657
78 1 5.00003 4.59638 11.5546
68 1 4.0494 4.41294 9.40825
69 1 4.84267 5.17802 10.2651
37 1 6.06874 3.61082 11.7029
47 1 5.10809 8.08662 2.40271
82 1 4.96223 9.02366 1.26491
90 1 3.79639 9.16875 0.524324
92 1 5.26552 8.80547 3.63437
55 1 5.87589 7.17186 5.54224
73 1 4.17217 7.63376 8.53943
62 1 5.71545 7.40426 7.95517
61 1 5.72299 8.2537 6.70443
65 1 3.11148 6.61469 8.37754
102 1 4.24442 9.05431 9.07609
72 1 5.53769 6.50788 10.2613
81 1 5.28903 7.68487 11.0289
88 1 3.70805 11.3485 1.88139
85 1 3.32025 10.6437 0.335322
97 1 5.70285 10.4928 5.27818
94 1 5.33394 11.941 5.26415
87 1 3.26262 11.043 3.43177
20 1 3.03727 11.9211 4.46013
95 1 5.99687 9.83166 4.05083
93 1 5.64576 9.83803 6.43326
100 1 5.33373 10.7184 7.82718
101 1 5.46144 9.67663 8.84249
106 1 4.73158 12.0475 8.21529
33 1 3.5328 12.1777 9.05972
98 1 3.51331 11.1403 10.0614
99 1 3.20549 9.75656 9.64285
103 1 3.33721 11.647 11.409
114 1 8.90222 1.40965 0.077084
15 1 6.57326 0.283536 4.92008
19 1 6.34392 0.739928 3.58208
123 1 8.83698 0.975551 5.17464
121 1 7.86696 0.0664144 5.54205
129 1 8.1895 0.00145949 9.7526
130 1 8.16986 2.47283 11.6181
137 1 6.72941 0.334557 9.57363
134 1 6.88601 2.7604 11.0583
147 1 7.72567 4.62507 2.28712
139 1 8.97238 5.23388 2.04666
141 1 6.67334 4.68656 3.25914
150 1 8.23487 3.94418 5.03613
156 1 6.97298 4.41732 4.60632
58 1 5.90649 4.78201 5.62923
151 1 8.52501 5.25488 7.03232
166 1 7.53126 4.45317 7.6386
23 1 6.29056 4.12792 6.95656
167 1 7.73993 3.90272 8.98515
165 1 8.64253 4.46837 9.82406
35 1 6.79502 2.9352 9.55288
171 1 8.11589 8.41303 1.49768
140 1 7.60084 7.62825 0.0920875
142 1 8.30912 7.47776 2.5327
145 1 6.52942 6.91828 0.594104
49 1 5.92342 6.84711 2.32637
144 1 7.14662 7.12613 3.29917
148 1 7.12702 7.27594 4.71885
154 1 8.43818 6.99475 5.41897
153 1 8.40836 6.67371 6.74033
162 1 8.65789 7.59459 7.82081
184 1 8.51861 8.99677 7.59482
188 1 7.77531 8.267 11.2122
160 1 7.81413 7.1975 10.0354
110 1 6.44448 9.02646 10.8878
159 1 9.09735 7.03808 9.30894
74 1 6.41053 6.89409 9.1942
169 1 7.19778 9.48163 1.77812
91 1 6.08 9.81333 0.963704
170 1 6.92975 10.2796 3.0609
174 1 8.14344 10.904 3.26077
177 1 8.79713 9.64014 6.38898
178 1 8.66753 11.3139 6.34176
180 1 7.96391 9.86685 8.85368
181 1 8.58837 11.2109 8.8703
104 1 6.62806 9.67265 9.63698
86 1 6.40344 10.0795 12.0367
191 1 8.75991 9.54181 11.2057
115 1 10.8063 1.57101 2.22083
112 1 9.89284 1.22279 0.983842
116 1 12.0326 1.16514 2.67339
111 1 10.1178 2.17408 3.40103
120 1 9.96378 1.25703 4.50138
126 1 11.0152 0.201596 4.59253
127 1 10.1347 0.455811 8.24963
189 1 11.5574 0.103059 7.64023
135 1 10.0258 2.37208 10.0389
131 1 9.53458 1.19689 9.3155
119 1 10.158 4.55517 1.12051
117 1 11.3318 4.42134 1.75446
113 1 9.68033 4.13901 -0.131173
128 1 10.3418 3.52843 3.7812
124 1 9.69565 3.74883 5.10801
146 1 11.2112 4.5059 3.19059
157 1 11.4507 5.80111 3.68533
161 1 10.4376 4.99923 8.62089
155 1 9.78905 4.80371 7.28511
125 1 10.5687 4.14016 6.27066
122 1 11.8228 3.62958 6.49409
133 1 11.5821 4.21205 9.11609
163 1 9.41606 5.54225 9.58978
132 1 11.3933 2.98344 9.78338
136 1 9.12919 3.40101 10.9821
143 1 9.33759 6.47199 2.66204
168 1 11.7352 7.80053 0.77022
149 1 9.84961 7.58474 4.94286
138 1 10.2918 6.58297 3.71346
175 1 9.6362 9.23125 5.25592
152 1 11.0892 7.1887 6.07609
158 1 10.954 7.28493 10.9667
164 1 10.1635 7.83503 9.8183
79 1 11.2698 6.99926 12.1978
183 1 10.3104 9.23533 9.36342
172 1 10.1647 10.271 4.43725
173 1 11.1923 11.1731 5.02771
179 1 9.43859 10.5527 3.28199
176 1 12.2087 10.8106 6.1231
182 1 11.3396 9.80894 8.21465
186 1 11.7367 10.9104 7.49021
185 1 9.11976 11.7954 7.66135
187 1 9.95313 10.1553 10.4429
190 1 10.8146 11.218 10.5549
105 1 11.8687 11.9789 10.1856
ITEM: TIMESTEP
4000
ITEM: NUMBER OF ATOMS
191
ITEM: BOX BOUNDS pp pp pp
-1.3146003380726531e-01 1.2131460033807281e+01
-1.3146003380726531e-01 1.2131460033807281e+01
-1.3146003380726531e-01 1.2131460033807281e+01
ITEM: ATOMS id type x y z
4 1 1.76247 2.72498 1.18272
116 1 0.0367513 1.02998 2.32169
12 1 1.01732 0.612252 4.77978
118 1 0.0389077 0.555331 3.63954
13 1 1.16099 1.42301 5.95112
31 1 2.73416 1.05088 8.59328
32 1 1.32071 0.7858 8.26491
11 1 0.517694 0.812825 7.10906
17 1 2.39445 2.28861 6.23761
28 1 0.376342 1.0117 9.4274
29 1 0.215648 2.4229 9.9056
30 1 1.28544 2.7724 10.7742
38 1 2.47323 2.16677 10.5874
36 1 2.5526 0.945369 11.2995
7 1 0.185866 4.54474 1.54807
6 1 0.890666 3.75706 0.637902
45 1 1.19637 5.14217 2.35054
53 1 0.356629 5.92599 4.4672
14 1 2.09543 3.56654 6.78942
22 1 0.711051 3.92207 7.26783
63 1 0.482067 4.94279 8.41284
34 1 1.12569 4.03225 11.5172
64 1 1.5668 5.11739 10.685
66 1 1.67418 4.69962 9.25369
39 1 0.38854 8.32623 0.973302
42 1 1.55176 7.67698 1.5114
43 1 2.65767 7.82474 0.664138
41 1 1.70049 7.38573 2.90717
54 1 2.38372 6.67552 5.63025
50 1 2.40842 8.33073 3.66519
52 1 0.969606 6.23379 5.76441
60 1 2.77977 8.05473 5.0802
40 1 1.31541 6.04293 3.32739
108 1 1.2939 8.66852 8.61871
67 1 1.609 7.22655 8.60483
71 1 0.509929 6.43239 8.14335
59 1 0.0732495 6.71655 6.82823
77 1 2.0592 6.28477 11.3143
76 1 2.27529 7.60814 11.6137
75 1 1.4747 8.66768 11.0674
89 1 1.50453 10.3014 1.09609
84 1 1.16237 10.1462 2.45992
80 1 0.959355 9.35617 0.0540113
85 1 2.92477 10.3738 1.06835
83 1 2.19627 9.73357 3.39269
21 1 1.69121 11.7473 4.98311
96 1 1.13834 10.6071 5.48843
109 1 0.266573 9.09078 7.83474
107 1 1.82468 9.21896 9.80168
3 1 4.2505 0.278272 2.2482
1 1 3.3948 1.26117 1.89623
2 1 5.61234 0.768566 2.59198
5 1 2.95446 2.53316 1.96177
16 1 4.04219 0.0965571 5.4355
10 1 4.97033 2.32418 6.39849
24 1 5.64033 2.43469 8.80466
9 1 5.85067 2.86629 7.32696
18 1 3.89993 1.56129 6.14517
26 1 5.89746 0.560151 8.89161
33 1 3.65076 -0.0385237 8.74013
25 1 3.16953 2.16271 9.37421
37 1 5.35612 2.77197 11.6122
48 1 4.27821 4.568 0.785369
8 1 3.76537 3.5389 2.73627
46 1 4.47478 4.56368 2.20165
44 1 5.47721 5.3208 2.71046
56 1 5.03882 5.81088 5.84316
70 1 3.02879 4.9913 8.70808
57 1 3.03569 4.6337 7.12996
51 1 3.57504 5.6885 6.28421
78 1 4.74196 4.00996 11.8408
68 1 4.18794 4.34416 9.38518
69 1 4.72111 4.98303 10.6148
27 1 4.23963 2.97839 9.12887
47 1 4.98529 7.81708 2.47969
82 1 4.74101 8.58407 1.30738
90 1 3.46786 8.91124 0.881799
49 1 5.81903 6.73749 2.69891
55 1 5.81722 7.0558 5.74082
92 1 5.10233 8.54216 3.75568
73 1 4.15168 7.64365 8.61728
62 1 5.5371 7.25293 8.19332
61 1 5.64253 7.95848 6.87931
65 1 3.04292 6.78128 8.65033
72 1 5.57102 6.2976 10.8052
81 1 5.51211 7.08063 11.8636
102 1 4.23459 8.8659 9.31914
88 1 3.60409 11.2227 2.20795
91 1 5.92046 9.27264 0.888401
97 1 5.7694 10.3087 5.36787
94 1 5.46827 11.7399 5.4375
87 1 3.20864 10.8517 3.47316
20 1 2.992 11.6578 4.70217
95 1 5.91445 9.70531 3.92456
93 1 5.40999 9.68861 6.59609
100 1 5.29858 10.603 7.7249
106 1 5.04469 12.0166 8.25093
101 1 5.52212 9.78315 8.93797
98 1 3.23463 11.209 9.82103
103 1 3.20812 12.0337 11.1071
99 1 3.03706 9.84054 9.83507
86 1 5.9116 9.80831 11.8364
114 1 9.03173 2.28816 -0.0131992
15 1 6.62033 0.144195 4.84655
123 1 8.75477 0.580037 4.503
19 1 6.45074 0.638872 3.5397
137 1 7.16325 0.477441 9.5408
129 1 8.55136 0.271599 9.14351
134 1 6.7059 2.75724 11.0964
147 1 7.69437 4.76714 2.41892
139 1 8.9857 5.37149 2.34348
141 1 6.65925 4.58635 3.16425
150 1 8.2451 3.8319 4.86545
156 1 7.00869 4.38491 4.59741
58 1 6.05987 4.64413 5.69957
151 1 8.42776 5.43285 7.22665
166 1 7.36044 4.59971 7.82532
23 1 6.33426 4.12928 7.02937
165 1 8.26685 5.0711 10.1267
136 1 8.5179 4.59784 11.4632
35 1 6.73801 2.99166 9.63969
167 1 7.36742 4.28892 9.23922
130 1 7.9374 3.24339 11.7593
171 1 7.95298 8.19854 1.43543
140 1 8.46559 7.96423 0.0842521
142 1 8.06232 7.40149 2.72601
144 1 6.96676 7.15198 3.48126
148 1 7.08279 7.0805 4.89954
154 1 8.36133 7.00482 5.46754
153 1 8.12425 6.70304 6.80422
162 1 8.33411 7.82336 7.71682
159 1 8.99724 7.4003 9.03961
74 1 6.30878 6.90835 9.43447
160 1 7.54649 7.40822 9.89081
169 1 7.06978 9.32161 1.65947
170 1 6.90366 10.0891 2.84459
174 1 8.2692 10.2933 3.18025
121 1 8.00999 11.9497 5.17139
177 1 8.67661 9.74117 6.13248
181 1 8.64113 11.4331 8.33619
180 1 7.91089 10.1477 8.43997
178 1 8.6864 11.1076 6.02486
184 1 8.27285 9.15443 7.43707
104 1 6.85064 9.88002 9.55848
110 1 6.90487 9.454 10.9168
188 1 8.28691 9.17297 11.4139
115 1 11.1178 1.80918 1.83589
112 1 10.1587 1.97915 0.722517
111 1 10.2643 2.10367 3.23088
120 1 10.014 0.705952 3.94055
126 1 11.0957 -0.0734764 4.1203
127 1 10.23 0.648004 7.47832
189 1 11.528 0.250391 7.2156
131 1 9.66754 1.23369 8.7767
135 1 10.1708 2.4437 9.29761
105 1 12.0139 0.0267755 10.3534
119 1 9.89897 5.05057 1.34841
117 1 11.0656 4.63585 1.94064
113 1 9.34576 5.40679 0.109661
128 1 10.3376 3.357 3.98141
124 1 9.62714 3.47517 5.18338
146 1 10.8965 4.58434 3.30512
157 1 11.1894 5.62492 4.21717
161 1 10.1613 4.98946 8.57949
155 1 9.72719 4.85722 7.32388
125 1 10.2913 3.98878 6.37436
122 1 11.7364 3.5687 6.48639
133 1 11.3756 4.41227 8.86661
163 1 9.22797 5.90753 9.33192
132 1 11.3546 3.10167 9.47638
168 1 11.4932 7.58059 0.663861
149 1 9.80307 7.57951 5.24781
138 1 10.2516 6.75722 3.9852
175 1 9.70445 9.04085 5.33479
143 1 9.2011 6.58499 2.96358
152 1 11.0371 7.20562 6.40613
158 1 11.1119 7.48436 10.4954
164 1 10.4255 8.02441 9.39737
79 1 10.7699 7.2721 11.8375
145 1 9.42134 6.81512 12.1168
172 1 10.2153 9.95771 4.34883
173 1 11.1509 10.924 4.73308
179 1 9.56862 9.99497 3.16702
176 1 12.0312 10.7298 5.83642
182 1 11.4521 9.96385 7.9497
186 1 11.7023 11.0979 7.12671
183 1 10.6351 9.43879 8.94566
185 1 9.26221 11.7678 7.08955
187 1 10.2413 10.4515 9.99231
190 1 10.916 11.586 10.5509
191 1 9.41053 9.89339 10.9642
ITEM: TIMESTEP
5000
ITEM: NUMBER OF ATOMS
191
ITEM: BOX BOUNDS pp pp pp
-1.0463064950789100e-01 1.2104630649507930e+01
-1.0463064950789100e-01 1.2104630649507930e+01
-1.0463064950789100e-01 1.2104630649507930e+01
ITEM: ATOMS id type x y z
116 1 0.0641287 1.51292 2.50298
4 1 2.21481 2.81234 1.16007
12 1 1.13003 0.789257 4.65822
118 1 0.0887271 0.854885 3.79367
13 1 1.13359 1.44473 5.92052
17 1 2.28108 2.38182 6.11525
32 1 1.24314 0.77992 8.27882
11 1 0.505959 0.791896 7.04153
31 1 2.60358 0.831531 8.57341
28 1 0.557423 1.10145 9.39825
30 1 1.3205 2.78981 10.73
38 1 2.51567 2.05993 10.6192
29 1 0.338372 2.39865 9.84197
105 1 -0.0589385 0.112873 10.1789
45 1 1.14557 4.90401 2.52357
6 1 1.31376 3.80223 0.599839
7 1 0.3293 4.42244 1.49981
14 1 2.08277 3.63646 6.67824
22 1 0.750488 4.10699 7.06964
63 1 0.646608 4.97552 8.36743
34 1 1.09461 4.03847 11.37
64 1 1.43406 5.1889 10.6928
66 1 1.80033 4.92652 9.3651
39 1 0.281373 8.61547 1.29617
42 1 1.44041 7.72913 1.82337
43 1 2.46877 7.78368 0.739568
54 1 2.23989 6.5617 5.78084
50 1 2.22765 8.1862 3.94676
60 1 2.72246 7.6591 5.1093
40 1 1.05235 6.09873 3.35262
52 1 0.834643 6.30267 5.70607
53 1 0.194523 6.04724 4.44724
41 1 1.44256 7.46571 3.08441
108 1 1.39779 8.65034 8.90575
67 1 1.68478 7.28944 8.44699
71 1 0.486543 6.48098 7.9113
77 1 1.48448 6.44644 11.204
76 1 1.91054 7.63597 11.6968
75 1 1.28318 8.81614 11.3947
89 1 1.85579 10.3555 1.03894
84 1 1.67531 10.0725 2.4987
80 1 0.878645 9.58542 0.355249
83 1 2.40323 9.48794 3.57897
21 1 1.84207 11.7086 4.89212
96 1 1.14027 10.5795 5.50519
109 1 0.679197 9.40437 7.98026
107 1 1.8907 9.30696 10.1049
3 1 4.57398 0.217579 1.43401
1 1 3.46355 0.960029 2.13878
2 1 5.83637 0.240645 2.03725
5 1 3.07883 2.36225 2.10566
16 1 4.15582 0.177984 5.24324
18 1 3.71299 1.5381 5.85903
9 1 5.42875 2.9384 7.22227
24 1 5.57478 2.45658 8.75216
10 1 4.76412 2.15917 6.30235
26 1 5.7894 0.85397 9.02687
25 1 3.03453 2.20984 9.28321
27 1 4.14041 2.99252 9.25494
36 1 3.04038 1.06932 11.4827
48 1 4.12934 4.78481 0.90199
46 1 4.35306 4.69326 2.355
8 1 3.97646 3.27886 2.57939
56 1 4.96752 6.05787 5.87931
58 1 5.77555 4.8256 5.78341
44 1 5.3297 5.4569 2.91079
70 1 3.08295 5.09515 8.63188
57 1 3.13159 4.76601 7.00222
51 1 3.44918 5.82658 6.15743
78 1 4.72012 4.25681 11.8764
68 1 4.12778 4.34841 9.44783
69 1 4.55893 4.97194 10.6041
37 1 5.74225 3.2587 11.9579
47 1 4.85769 8.20527 2.69883
82 1 4.72538 8.56565 1.3965
90 1 3.52278 8.94375 0.723327
49 1 5.56907 6.88673 3.0292
55 1 5.7098 7.32159 5.88178
73 1 4.02286 7.77553 8.59449
62 1 5.46627 7.39582 8.321
61 1 5.66289 8.2437 6.99529
65 1 3.00979 6.79572 8.51293
72 1 5.12015 6.29562 10.5148
81 1 4.88004 6.984 11.6739
102 1 4.30241 8.9108 9.45762
88 1 3.93589 11.3924 0.450454
85 1 3.29845 10.2601 0.806036
91 1 5.84061 9.07808 0.83664
94 1 5.51419 11.8849 5.42153
97 1 5.82298 10.5084 5.53484
87 1 3.57079 10.0745 3.99285
20 1 3.35482 11.4562 4.5318
92 1 4.84627 9.27048 3.68757
93 1 5.66429 9.73198 6.75581
100 1 5.31517 10.5152 7.9963
106 1 4.95994 11.9371 8.22115
33 1 3.5267 11.9125 8.85417
98 1 3.48011 11.2401 10.2164
99 1 3.3575 9.7933 10.1778
101 1 5.60407 9.59727 9.1535
103 1 3.6069 12.02 11.4661
86 1 6.08364 9.10272 11.6443
15 1 6.53718 0.156443 4.60134
19 1 6.31782 0.588326 3.29925
123 1 8.7038 0.875461 4.67142
137 1 7.08622 0.53952 9.66939
129 1 8.50772 0.286208 9.22671
147 1 7.65471 4.68056 2.33045
139 1 8.9941 5.14534 2.28073
141 1 6.48463 4.67276 3.2803
150 1 7.94676 3.64003 5.07755
156 1 6.78075 4.46001 4.82727
151 1 8.24544 5.24057 7.20914
166 1 7.23787 4.33455 7.69988
23 1 6.03476 4.06897 6.94766
165 1 8.32793 5.10168 9.98326
130 1 8.29554 3.28705 11.6675
136 1 8.79994 4.56391 11.3056
35 1 6.65318 3.09525 9.72549
134 1 6.97233 3.06907 11.1688
167 1 7.62283 3.97732 9.14585
171 1 7.871 8.16332 1.5915
140 1 8.52576 7.84222 0.360878
142 1 8.05209 7.42533 2.78219
144 1 6.89465 7.23341 3.66313
148 1 7.01429 7.32184 5.08456
154 1 8.28716 7.12368 5.58002
153 1 8.28475 6.65205 6.82961
162 1 8.71464 7.58185 7.81904
184 1 8.39218 8.9469 7.46131
160 1 7.35555 6.23378 9.77158
74 1 6.05427 6.6726 9.31934
188 1 8.31705 8.99958 11.4163
169 1 6.88266 9.15056 1.63203
170 1 6.97399 9.9954 2.99168
174 1 8.20314 10.515 2.98052
121 1 7.81231 12.1779 5.15077
95 1 6.05316 10.0317 4.1224
178 1 8.42272 11.1262 6.01126
181 1 8.6553 11.1063 8.45222
180 1 7.94673 9.85278 8.43785
177 1 8.79042 9.65594 6.12026
185 1 9.06642 11.6999 7.09697
104 1 6.92803 9.60062 9.46299
110 1 7.14079 9.02099 10.7779
115 1 10.7945 1.72187 2.03515
112 1 10.0828 2.07042 0.843446
114 1 9.08855 2.4925 0.082899
111 1 10.1594 2.13934 3.40819
120 1 9.93512 0.964097 4.10034
126 1 11.0275 0.0141592 4.07384
127 1 10.1196 0.408296 7.51991
189 1 11.4347 0.00495057 7.1047
131 1 9.7007 1.12537 8.7483
135 1 10.1574 2.30268 9.37169
119 1 10.0033 4.94952 1.22973
117 1 11.174 4.55817 1.79766
113 1 9.55055 5.43299 -0.00228224
128 1 10.1252 3.44381 3.94634
124 1 9.38087 3.5509 5.02801
146 1 11.0186 4.48537 3.38052
157 1 11.1138 5.6655 4.20536
161 1 10.369 5.01954 8.34922
155 1 9.578 4.68477 7.2588
125 1 10.2022 3.93837 6.21851
122 1 11.6147 3.86948 6.49093
133 1 11.5058 4.38747 8.90043
163 1 9.58194 5.74043 9.30969
132 1 11.3387 3.14102 9.56697
168 1 11.2607 8.07087 0.897805
145 1 9.51712 6.90986 -0.0248568
149 1 9.70552 7.65469 5.15705
138 1 10.0676 6.61771 4.06191
143 1 9.13148 6.56937 2.97414
159 1 9.53815 7.22398 8.85955
152 1 10.941 7.47664 6.12556
59 1 12.0737 6.76269 6.72332
158 1 11.1872 7.52742 10.6596
164 1 10.5874 7.99946 9.43489
79 1 10.6733 7.58296 11.9747
179 1 9.47371 10.2432 2.76962
172 1 10.1907 9.87023 3.96407
173 1 11.1932 10.8623 4.40721
175 1 9.61603 9.11451 5.00979
176 1 11.9722 10.5623 5.59282
182 1 11.7185 10.0348 7.91037
186 1 11.553 10.8512 6.88511
183 1 10.7947 9.31654 9.05052
187 1 10.3725 10.3336 10.0457
190 1 11.1573 11.4015 10.4166
191 1 9.44044 9.76395 10.8974
ITEM: TIMESTEP
6000
ITEM: NUMBER OF ATOMS
191
ITEM: BOX BOUNDS pp pp pp
-1.6210776117410791e-01 1.2162107761174127e+01
-1.6210776117410791e-01 1.2162107761174127e+01
-1.6210776117410791e-01 1.2162107761174127e+01
ITEM: ATOMS id type x y z
116 1 -0.0246227 1.20811 2.43708
4 1 1.87567 2.76577 1.22712
12 1 1.18991 0.592303 4.74397
118 1 0.169324 0.585042 3.71286
13 1 1.19933 1.40482 5.92974
31 1 2.6148 0.794071 8.52995
32 1 1.17524 0.835968 8.37279
11 1 0.358043 0.907653 7.14341
17 1 2.40526 2.23312 6.05471
28 1 0.321636 0.948314 9.55928
30 1 1.27943 2.69549 10.8082
38 1 2.55364 1.96612 10.6735
29 1 0.217375 2.1822 10.1345
45 1 1.08609 5.35868 2.28586
6 1 1.01636 3.68649 0.62413
7 1 0.30771 4.50477 1.48645
14 1 2.10933 3.52169 6.75212
22 1 0.577087 3.89666 7.15017