ITEM: TIMESTEP
1000
ITEM: NUMBER OF ATOMS
191
ITEM: BOX BOUNDS pp pp pp
0.0000000000000000e+00 1.2000000000000000e+01
0.0000000000000000e+00 1.2000000000000000e+01
0.0000000000000000e+00 1.2000000000000000e+01
ITEM: ATOMS id type x y z
12 1 1.20509 0.848646 4.8824
1 1 2.45416 2.21262 3.44646
118 1 0.0568909 0.931156 4.21542
31 1 2.7963 1.20012 8.59879
32 1 1.33362 1.11411 8.47168
11 1 0.524598 1.20419 7.34151
17 1 2.71238 2.40746 6.16634
13 1 1.38231 1.67759 6.10224
28 1 0.600435 1.06936 9.68613
29 1 0.380463 2.49177 10.0643
30 1 1.54051 2.88833 10.6729
38 1 2.76966 2.1392 10.5977
4 1 2.18611 3.42645 1.49308
6 1 1.37529 4.1638 0.681185
7 1 0.316389 4.7799 1.23673
5 1 2.72351 3.38718 2.80547
53 1 0.358511 5.83537 4.1516
14 1 2.48962 3.77126 6.47623
22 1 1.04066 4.12647 6.92577
63 1 0.861504 4.89394 8.19573
34 1 1.60511 4.1806 11.3394
64 1 1.84804 5.17285 10.4568
66 1 1.97643 4.87993 9.13738
39 1 0.181589 8.50532 0.712513
43 1 2.65505 8.15867 0.868042
42 1 1.41328 7.99508 1.5577
45 1 0.410238 6.0196 1.6437
40 1 0.607622 6.50916 2.98891
41 1 1.37971 7.70322 2.91852
54 1 2.3679 6.52629 5.21292
50 1 2.14686 8.46843 3.69532
52 1 1.04645 6.21113 5.25484
60 1 2.43505 7.90596 4.88676
59 1 0.319578 6.54721 6.41356
67 1 1.82448 7.31926 8.10585
71 1 0.824954 6.39916 7.65354
108 1 1.50378 8.72625 8.5489
75 1 1.63839 8.73584 10.9
76 1 2.39605 7.75422 11.4558
77 1 2.36185 6.3648 11.1126
89 1 1.68557 10.4378 0.778156
84 1 1.26087 10.293 2.26055
96 1 1.39937 10.5244 5.80047
21 1 1.92503 11.6793 5.0829
83 1 1.97272 9.86486 3.45811
109 1 0.460584 9.13924 7.92927
107 1 1.96788 9.23301 9.68906
80 1 0.964113 9.47731 11.8748
3 1 3.46182 1.23958 3.5408
16 1 4.12741 0.164967 5.50129
2 1 4.94593 1.47411 3.18049
9 1 5.79569 2.82726 7.153
24 1 5.70492 2.43076 8.65892
26 1 5.83625 0.933983 8.58776
10 1 5.33926 2.06308 6.16372
18 1 3.95423 1.52412 6.0336
25 1 3.47206 2.22466 9.36298
36 1 3.1563 1.05003 11.3995
48 1 4.33373 4.65548 0.709691
44 1 5.99016 5.22315 2.44868
46 1 4.83482 4.57961 2.03733
8 1 3.91788 4.06314 2.96916
58 1 5.89245 4.77236 5.62939
56 1 5.05263 5.94244 5.47293
51 1 3.61934 5.79543 5.77172
70 1 3.40603 5.25056 8.37877
57 1 3.29911 4.88631 6.83742
78 1 5.12797 4.29346 11.5245
68 1 4.40579 4.42649 9.42396
69 1 5.059 5.21573 10.3426
27 1 4.47806 3.0505 9.22505
47 1 5.19546 7.94796 2.43487
82 1 4.90455 8.78538 1.39948
92 1 5.0144 8.61295 3.70179
55 1 5.95341 7.18716 5.53858
73 1 4.19161 7.74413 8.55678
62 1 5.53684 7.49362 7.95057
65 1 3.19209 6.8109 8.4114
61 1 5.63671 8.06901 6.60218
72 1 5.55993 6.5066 10.3029
81 1 5.54413 7.76087 11.0694
88 1 3.49987 11.0428 2.1632
85 1 3.16455 10.4098 1.00517
91 1 5.91697 9.71594 1.04399
90 1 3.67653 9.11918 1.0001
94 1 5.51007 11.7138 5.47563
97 1 5.54044 10.2859 5.25334
87 1 3.11333 10.7168 3.43176
20 1 3.18504 11.8843 4.2963
95 1 5.89847 9.73487 4.04418
93 1 5.64775 9.60237 6.45837
100 1 5.39615 10.4731 7.59658
101 1 5.51693 9.71445 8.84227
106 1 4.93343 11.8978 7.96221
33 1 3.59975 11.9983 8.55921
98 1 3.50555 11.1841 9.68144
103 1 3.22428 11.7935 10.9441
99 1 3.27887 9.79207 9.59418
102 1 4.32834 9.07969 9.01661
114 1 8.60925 1.0636 0.341457
15 1 6.28686 1.03729 5.36838
19 1 6.14573 1.31933 3.9212
121 1 7.76238 0.614062 5.91285
128 1 8.88866 2.97665 3.70562
129 1 8.35478 0.18746 9.37563
130 1 8.26103 2.13424 11.4211
137 1 7.02759 0.504277 9.32774
134 1 6.96563 2.54662 10.8961
35 1 6.87822 2.8466 9.43909
147 1 8.12484 3.78741 2.81579
139 1 8.95702 4.71955 2.11283
141 1 6.86754 4.534 3.29409
150 1 8.14886 4.52859 5.47536
156 1 6.87198 4.6036 4.71775
151 1 8.27125 5.07366 6.80782
166 1 7.22697 4.60737 7.64401
23 1 6.11789 4.13615 6.99852
167 1 7.57641 4.01855 8.90824
165 1 8.33637 4.89564 9.7276
37 1 6.09022 3.28999 11.648
49 1 6.32647 6.66491 2.15676
140 1 7.99375 7.68454 0.383597
142 1 8.58072 7.38481 2.5869
145 1 6.96274 6.67636 0.681379
171 1 8.11027 8.45739 1.63405
144 1 7.31434 7.04926 3.2988
148 1 7.18411 7.1601 4.73754
154 1 8.35935 7.1502 5.53352
153 1 8.1698 6.55922 6.73473
162 1 8.58165 7.49694 7.74916
184 1 8.14193 8.93666 7.51019
188 1 7.99517 8.26872 11.0671
74 1 6.48352 6.90777 9.14608
160 1 7.81743 7.2395 9.89896
169 1 7.09657 9.53003 1.87342
174 1 7.97704 10.9841 3.56656
170 1 6.93637 10.1165 3.21665
177 1 8.34338 9.55504 6.12299
178 1 8.10362 11.1346 6.34415
180 1 7.89147 9.70405 8.60484
181 1 8.60636 10.9521 8.71045
185 1 8.91145 11.4014 7.40967
104 1 6.73251 9.58153 9.41521
110 1 6.49943 9.08283 10.8292
86 1 6.07477 10.1283 11.7812
115 1 10.3233 1.23323 2.44296
116 1 11.6482 0.993539 2.82226
112 1 9.70433 1.22206 1.2498
111 1 9.4857 1.66562 3.53701
126 1 10.9251 0.207048 4.75638
120 1 9.76984 1.11383 4.82804
123 1 9.07273 1.35593 5.95414
127 1 9.85358 0.871564 7.35898
189 1 11.3665 0.497339 7.24559
131 1 9.26943 1.27343 8.8753
135 1 9.92736 2.45712 9.72437
136 1 9.31994 2.91918 10.9834
105 1 11.8296 0.0101488 10.1355
119 1 10.0568 4.12402 1.1601
117 1 11.2913 4.10232 1.87838
157 1 11.3328 4.9189 4.17809
124 1 9.18021 3.70881 5.01453
146 1 11.3855 3.97031 3.30822
138 1 10.2186 5.74187 3.89366
161 1 10.2777 4.94223 8.31128
155 1 9.72347 4.77316 7.05922
133 1 11.4486 4.36918 8.8939
122 1 11.7791 3.7662 6.22739
125 1 10.4313 4.01175 6.05778
163 1 9.44619 5.61201 9.18789
113 1 9.86272 3.82653 11.855
132 1 11.2015 3.12199 9.46298
143 1 9.41135 6.11047 2.82495
168 1 11.139 7.60473 0.563201
149 1 9.69535 7.6531 5.41856
152 1 10.827 7.13612 6.19421
159 1 9.168 7.09184 8.9772
158 1 11.2905 7.02504 10.2119
164 1 10.4181 7.84684 9.49228
79 1 11.2299 6.74242 11.5198
172 1 10.0074 10.0659 4.56232
173 1 11.0291 10.7553 5.07982
175 1 9.42791 9.05859 5.30838
179 1 9.28849 10.6904 3.58403
182 1 11.2861 9.8532 8.11419
186 1 11.4828 11.032 7.29613
176 1 11.9937 10.5963 6.03074
187 1 10.2157 9.88624 10.5578
190 1 10.9942 11.1135 10.7664
183 1 10.5117 9.3033 9.2034
191 1 9.03 9.33326 11.045
ITEM: TIMESTEP
2000
ITEM: NUMBER OF ATOMS
191
ITEM: BOX BOUNDS pp pp pp
-1.1126396754627818e-01 1.2111263967546295e+01
-1.1126396754627818e-01 1.2111263967546295e+01
-1.1126396754627818e-01 1.2111263967546295e+01
ITEM: ATOMS id type x y z
4 1 1.78225 2.8094 1.40273
12 1 1.16395 0.667749 4.77443
118 1 0.171708 0.37147 3.81892
13 1 1.26603 1.36914 6.02495
31 1 2.73648 0.905075 8.65843
32 1 1.18904 0.64307 8.56063
11 1 0.541733 0.771311 7.33688
17 1 2.4521 2.09713 6.14093
28 1 0.200951 0.861547 9.65139
38 1 2.61901 2.00281 10.8599
30 1 1.4619 2.61359 10.9849
29 1 0.241749 2.31222 10.1855
7 1 0.418768 4.74904 1.41342
6 1 1.12813 3.85289 0.684308
45 1 1.14093 5.74203 2.01502
14 1 2.19834 3.55771 6.61319
22 1 0.843592 3.97827 7.02266
63 1 0.70291 4.78503 8.36256
34 1 1.36692 3.97249 11.5209
64 1 1.76877 5.00133 10.5854
66 1 1.83579 4.7036 9.22057
39 1 0.269804 8.77823 0.843392
43 1 2.39959 8.07841 0.656897
42 1 1.37249 8.11034 1.70833
41 1 1.61958 7.77879 2.95527
54 1 2.29065 6.78514 5.67537
50 1 2.21399 8.72653 3.87563
52 1 0.916996 6.36456 5.73072
40 1 0.990235 6.55046 3.15931
60 1 2.49518 8.05037 5.12005
53 1 0.347494 6.15847 4.27162
108 1 1.33835 8.44075 8.56521
67 1 1.66432 7.08267 8.24026
71 1 0.533552 6.24636 7.9339
59 1 -0.062569 6.56482 6.65524
77 1 1.95428 6.33918 11.1656
76 1 1.85371 7.61015 11.5924
75 1 1.28111 8.80042 11.004
89 1 1.55931 10.7537 0.657323
84 1 1.28875 10.5486 2.2313
80 1 0.760079 9.81068 -0.101137
83 1 2.16861 10.1159 3.36003
21 1 1.89496 11.6358 5.08258
96 1 1.17603 10.6074 5.64099
109 1 0.18644 9.03965 8.03941
107 1 1.74909 9.16107 9.74229
3 1 5.20244 1.23856 1.85792
1 1 3.89703 1.71126 2.07299
5 1 2.96163 2.73469 2.33503
16 1 4.11576 0.050789 5.50549
18 1 3.84033 1.41886 5.92917
26 1 5.81751 0.874156 8.9691
24 1 5.69462 2.25945 8.53251
10 1 5.0012 2.06368 6.25707
9 1 5.67003 2.85599 7.26412
25 1 3.22229 2.09937 9.47541
36 1 2.98939 0.850137 11.6506
48 1 4.13556 4.8861 0.622097
44 1 5.60003 5.28444 2.68515
46 1 4.44427 4.79614 1.95977
8 1 3.49359 3.97846 2.64699
56 1 5.09053 5.88039 5.76416
58 1 6.00031 4.56496 5.80305
70 1 3.17225 5.14438 8.37673
57 1 3.27353 4.71832 6.89953
51 1 3.59572 5.75921 5.99988
78 1 4.83751 4.68326 11.5844
68 1 4.23273 4.52961 9.29106
69 1 4.85011 5.26996 10.3097
37 1 5.69431 3.46628 11.6779
27 1 4.30228 3.03433 9.23801
47 1 5.08932 7.75087 2.32768
82 1 4.71954 8.68326 1.30295
92 1 4.9576 8.34441 3.63126
55 1 5.8435 7.08848 5.46803
73 1 4.12892 7.71518 8.56349
62 1 5.49283 7.40089 8.14176
65 1 3.11897 6.72469 8.42691
61 1 5.75754 8.12537 6.71106
72 1 5.46018 6.42872 10.1863
81 1 5.49831 7.55409 10.9492
102 1 4.20534 9.01648 9.2073
88 1 3.4435 11.4121 1.8997
91 1 5.77116 9.60996 1.05044
85 1 3.15322 10.8371 0.571454
90 1 3.35578 9.05003 0.769409
97 1 5.53052 10.3247 5.23359
94 1 5.47419 11.7812 5.3519
20 1 3.2259 11.6442 4.62071
87 1 3.33485 11.082 3.30154
95 1 5.67541 9.64535 3.99643
93 1 5.38596 9.6183 6.51548
100 1 5.35698 10.5775 7.75805
101 1 5.44996 9.72286 8.88616
33 1 3.5124 11.9762 9.03341
106 1 4.88318 12.0138 8.28124
98 1 3.29517 10.995 10.1083
99 1 3.10246 9.62664 9.93997
103 1 3.28073 11.6117 11.4677
86 1 6.01282 10.0442 11.9084
114 1 8.59667 1.90613 0.448403
2 1 6.38274 1.16399 2.58566
15 1 6.78931 0.114367 5.00182
19 1 6.90643 0.629832 3.68821
121 1 8.09409 0.0124374 5.79117
129 1 8.15453 0.254536 9.55403
130 1 8.0628 2.63965 11.4531
137 1 6.74758 0.478605 10.0073
134 1 6.70714 2.81251 11.0066
147 1 7.84525 4.63332 2.40956
141 1 6.74194 4.49241 3.24427
150 1 8.28415 3.67036 4.95651
156 1 6.96661 4.21867 4.66173
151 1 8.55419 5.23309 6.99788
166 1 7.58073 4.46349 7.7814
23 1 6.21677 4.1077 7.10887
165 1 8.63158 4.45791 9.88608
35 1 6.72026 3.05794 9.53501
167 1 7.59372 4.06134 9.13192
171 1 7.95086 8.48318 1.49192
140 1 7.62547 7.61318 0.35907
142 1 8.40371 7.55031 2.65236
145 1 6.78003 6.57739 0.742734
49 1 6.05799 6.61297 2.2342
144 1 7.12656 7.06623 3.38067
148 1 7.09863 7.00877 4.75228
154 1 8.40056 7.0261 5.43895
153 1 8.31579 6.60923 6.76437
162 1 8.44924 7.60315 7.69299
184 1 8.30102 8.98842 7.62285
159 1 8.95435 7.0924 9.03611
188 1 7.89966 8.28654 11.1481
160 1 7.6572 7.28615 9.75726
74 1 6.38368 6.88417 9.07769
110 1 6.52768 9.06623 10.9056
169 1 6.94512 9.34206 1.83968
174 1 8.03902 10.6679 3.52305
170 1 6.80892 10.0003 3.15619
177 1 8.95235 9.63346 6.35763
178 1 8.82998 11.0439 6.40352
180 1 7.79116 9.93272 8.71846
181 1 8.3974 11.3406 8.78071
104 1 6.70388 9.58657 9.52509
191 1 8.98009 9.47588 10.9268
115 1 10.7654 1.48057 2.17792
112 1 9.70963 1.48979 1.0764
116 1 12.0099 1.0096 2.60545
111 1 10.1618 2.08038 3.37413
126 1 11.1839 0.135529 4.56329
120 1 10.0774 1.13418 4.46414
123 1 9.05736 0.98187 5.33469
127 1 10.1477 0.718031 7.80073
189 1 11.5022 0.204991 7.37041
135 1 9.96425 2.46507 9.84815
131 1 9.44272 1.38859 9.10992
119 1 10.0121 4.67127 1.0942
117 1 11.2945 4.54351 1.79367
139 1 9.02062 5.2986 1.94448
157 1 11.3094 5.65684 3.91677
124 1 9.71392 3.79942 4.99555
146 1 11.1204 4.33414 3.21709
128 1 10.4829 3.32865 3.8831
161 1 10.4891 5.12401 8.47727
155 1 9.97432 4.94152 7.12584
125 1 10.5095 4.13269 6.15751
122 1 11.891 3.7564 6.28837
133 1 11.5875 4.40761 9.00931
163 1 9.3875 5.48768 9.24351
113 1 9.68932 4.2306 11.9796
136 1 9.1676 3.42644 10.7732
132 1 11.3643 3.05019 9.65989
143 1 9.34929 6.48215 2.68079
168 1 11.4447 7.85685 0.666233
149 1 9.76644 7.53377 5.20655
138 1 10.1562 6.58858 3.77968
175 1 9.63382 8.99504 5.15349
152 1 10.9831 7.13954 6.21041
158 1 11.0859 7.46999 10.4673
164 1 10.2956 7.87494 9.45225
79 1 10.907 7.468 11.7791
172 1 10.3229 10.0402 4.40511
173 1 11.2029 11.0043 4.88197
179 1 9.33169 10.4936 3.57333
176 1 12.121 10.5618 5.97875
182 1 11.4119 9.93869 8.04949
186 1 11.5868 11.0358 7.21726
185 1 9.36119 11.6352 7.63275
183 1 10.4346 9.37183 8.9888
187 1 10.053 9.94381 10.2218
190 1 10.6158 11.236 10.3855
105 1 11.6822 12.0186 10.1048
ITEM: TIMESTEP
3000
ITEM: NUMBER OF ATOMS
191
ITEM: BOX BOUNDS pp pp pp
-2.0005122735643235e-01 1.2200051227356425e+01
-2.0005122735643235e-01 1.2200051227356425e+01
-2.0005122735643235e-01 1.2200051227356425e+01
ITEM: ATOMS id type x y z
4 1 1.96799 2.83638 1.32131
12 1 0.821467 0.752674 4.79462
118 1 -0.153335 0.61251 3.67238
31 1 2.76461 0.747765 8.75184
32 1 1.31396 0.511807 8.47202
11 1 0.396798 0.774375 7.186
13 1 0.929827 1.52738 6.03749
17 1 2.13346 2.17507 6.15984
28 1 0.487051 0.740754 9.59991
38 1 2.26132 1.80582 10.7902
30 1 1.19523 2.69165 11.0379
29 1 0.0868063 2.18101 10.0926
36 1 2.70568 0.681024 11.566
7 1 0.230673 4.56693 1.40881
6 1 1.07481 3.70351 0.724061
45 1 0.942617 5.68611 1.99171
14 1 1.88288 3.65986 6.70872
22 1 0.500588 4.03408 7.12193
63 1 0.432695 5.04109 8.40093
34 1 1.13159 3.89067 11.6713
64 1 1.67285 5.07624 10.9571
66 1 1.65955 4.90613 9.46481
41 1 1.31546 7.89641 2.79793
39 1 0.105283 8.50702 0.570998
42 1 1.28338 8.31219 1.41623
43 1 2.49525 8.4242 0.748567
54 1 2.37384 6.6407 5.49089
50 1 2.13139 8.8813 3.62694
52 1 0.931266 6.35398 5.32085
53 1 0.394112 6.01775 4.12944
60 1 2.67927 7.90172 4.75761
40 1 0.951025 6.63117 3.0021
108 1 1.32361 8.47644 8.68655
67 1 1.65154 7.12404 8.47609
71 1 0.652625 6.33602 7.78259
59 1 0.0134362 6.40745 6.37494
77 1 2.43622 6.40447 11.4167
76 1 2.21973 7.82274 11.7721
75 1 1.41866 9.03431 11.1532
89 1 1.04674 10.5773 0.486666
84 1 1.32379 10.4723 1.83664
96 1 0.983801 10.8237 5.39316
21 1 1.65929 11.8691 4.81609
83 1 2.32851 10.2335 2.92718
109 1 0.426465 9.15905 7.87915
107 1 1.81432 9.13387 9.74164
80 1 0.472873 9.64737 12.037
3 1 5.30209 1.15384 1.89219
1 1 3.90641 1.00894 1.84972
5 1 3.34313 2.53428 1.93995
16 1 4.04722 0.264765 5.20569
18 1 3.51721 1.5373 5.8736
26 1 5.82563 0.560631 8.67777
24 1 5.45502 2.39683 8.89824
10 1 4.48221 2.28401 6.61681
9 1 5.44621 2.88771 7.43413
25 1 3.0013 2.10329 9.32969
37 1 5.40876 2.81989 11.5491
48 1 5.14604 5.14989 0.251265
44 1 5.60951 5.39549 2.71334
46 1 4.90679 4.80661 1.66929
8 1 4.18074 3.66316 2.05991
58 1 6.01099 4.59842 5.83308
56 1 5.12556 5.78373 5.86385
70 1 2.96766 4.96138 8.60778
57 1 2.97893 4.5822 7.09929
51 1 3.41732 5.52619 6.06382
78 1 4.89772 4.12607 11.6314
69 1 4.98884 4.91258 10.373
68 1 4.12454 4.39161 9.32222
27 1 4.15541 2.94273 9.3025
47 1 4.92966 8.11749 2.39279
49 1 5.90217 6.88742 2.37753
92 1 4.84152 8.70103 3.64904
55 1 5.87154 6.94297 5.8125
73 1 4.32681 7.59785 8.79765
62 1 5.63454 7.20584 8.34859
61 1 5.6918 7.86529 6.80817
65 1 3.19237 6.76878 8.57544
81 1 5.69898 6.29655 12.1068
102 1 4.33701 8.8719 9.26845
72 1 5.76359 6.16438 10.666
88 1 3.5619 12.0648 1.90155
90 1 3.46153 9.50461 0.918784
85 1 3.36158 11.0874 0.567858
91 1 5.84271 9.95535 0.853527
82 1 4.78772 9.16472 1.28943
97 1 5.25978 10.2723 5.28555
94 1 5.28357 11.9105 5.40173
20 1 3.07689 11.8647 4.42451
95 1 5.6499 9.76777 4.08483
87 1 3.24744 11.3085 3.14779
93 1 5.43381 9.70134 6.53638
100 1 5.24355 10.5821 7.84483
106 1 4.94336 11.876 8.37685
98 1 3.21734 11.0864 10.1636
103 1 3.03895 11.6089 11.6237
99 1 3.18893 9.61533 9.7303
33 1 3.64846 12.0056 9.09041
101 1 5.53246 9.74849 9.08253
114 1 8.85074 1.73862 0.235321
2 1 6.23442 1.47469 2.75636
15 1 6.65509 0.129605 5.17273
19 1 6.37619 1.24128 4.03622
123 1 8.79365 0.698009 5.02008
129 1 8.53412 0.23823 9.49205
137 1 7.05666 0.632221 9.3175
134 1 6.76157 2.58458 11.0854
130 1 7.78301 1.68043 11.8509
147 1 7.96045 4.66148 2.35281
141 1 6.71678 4.67511 3.31829
150 1 8.08182 3.67747 5.1981
156 1 6.96938 4.45121 4.81652
151 1 8.45163 5.22361 7.33726
166 1 7.4476 4.38441 7.92553
23 1 6.43347 3.87849 7.00144
165 1 8.52743 4.56994 10.2112
35 1 6.68264 2.9339 9.58714
167 1 7.50945 4.10385 9.30729
171 1 7.91169 8.6413 1.56034
140 1 7.50414 7.95187 0.258885
142 1 8.28993 7.53519 2.68577
145 1 6.53873 7.05011 0.592984
144 1 7.09312 7.2265 3.43567
148 1 7.0983 7.06804 4.86989
154 1 8.38621 6.91244 5.57712
153 1 8.20886 6.54116 6.89469
162 1 8.59884 7.58842 7.86542
184 1 8.54613 8.99587 7.53437
188 1 8.17924 8.42949 11.2412
160 1 7.62282 7.41924 10.1092
74 1 6.38866 6.94265 9.78304
159 1 8.84364 7.12944 9.23082
169 1 6.8763 9.61725 1.86919
174 1 7.93155 10.6431 3.70626
170 1 6.72947 10.0987 3.25144
121 1 8.01566 12.0949 5.508
177 1 8.75097 9.79385 6.34264
178 1 8.5918 11.1867 6.33546
180 1 7.99194 10.0407 8.67857
181 1 8.53256 11.4091 8.752
104 1 6.86259 9.8275 9.5789
110 1 7.16071 9.5632 10.9343
86 1 6.41451 10.3649 11.8989
115 1 10.7627 1.71226 2.05438
112 1 9.96374 1.7322 1.01845
116 1 12.0971 1.2978 2.48386
111 1 10.2352 2.07525 3.31344
126 1 10.9952 -0.176663 3.96904
120 1 9.96023 0.891623 4.20493
127 1 10.2047 0.374572 7.93087
189 1 11.5879 0.0765556 7.32138
131 1 9.51331 1.23159 9.05066
135 1 9.96677 2.56355 9.7254
132 1 11.4461 2.89696 9.46636
119 1 10.1502 4.75161 1.06358
117 1 11.3099 4.52714 1.7908
139 1 9.0856 5.27889 1.90132
157 1 11.444 5.64383 3.93204
124 1 9.70384 3.62796 5.2076
146 1 11.1706 4.38774 3.2243
128 1 10.2488 3.38212 3.82523
161 1 10.3592 4.99777 8.70079
155 1 9.78551 4.78666 7.34271
125 1 10.4711 4.09498 6.29112
122 1 11.7824 3.70508 6.37418
133 1 11.6331 4.29465 8.92867
163 1 9.28055 5.69002 9.65715
136 1 9.51434 3.55582 10.7161
113 1 10.076 4.10245 12.0365
143 1 9.3913 6.42443 2.72577
168 1 11.6237 7.5525 0.103692
149 1 9.92322 7.50024 5.0951
138 1 10.4342 6.65538 3.82388
152 1 11.2246 6.9894 6.06942
158 1 11.1626 7.10949 10.2093
164 1 10.2527 7.8894 9.53304
79 1 11.1723 6.78059 11.5478
172 1 10.167 10.0404 4.38348
173 1 11.1218 10.9972 4.65674
179 1 9.15449 10.5703 3.53778
176 1 12.097 10.8704 5.73958
175 1 9.66603 9.10423 5.33231
182 1 11.4164 9.87966 7.86236
186 1 11.5644 11.0175 7.02891
185 1 9.17446 11.7493 7.59428
187 1 10.425 9.91383 10.4238
190 1 11.0384 11.2704 10.5512
191 1 9.48296 9.23198 11.3509
183 1 10.5168 9.24001 9.25311
105 1 11.9694 12.2206 10.1702
ITEM: TIMESTEP
4000
ITEM: NUMBER OF ATOMS
191
ITEM: BOX BOUNDS pp pp pp
-1.0473497378755323e-01 1.2104734973787549e+01
-1.0473497378755323e-01 1.2104734973787549e+01
-1.0473497378755323e-01 1.2104734973787549e+01
ITEM: ATOMS id type x y z
4 1 1.74153 2.65803 1.04988
12 1 1.17497 0.517343 4.88072
118 1 0.058082 0.644024 3.93221
31 1 2.85074 0.688661 8.6638
32 1 1.42488 0.612851 8.60065
11 1 0.486928 0.88476 7.36566
13 1 1.08975 1.27317 6.09151
17 1 2.35398 2.21237 6.07614
28 1 0.620272 0.724327 9.84305
38 1 2.66075 1.99635 10.5872
30 1 1.46812 2.75159 10.7602
29 1 0.319065 2.00569 10.4199
36 1 2.78199 0.718395 11.404
7 1 0.347285 4.60972 1.3993
6 1 0.991385 3.75499 0.542195
45 1 1.26632 5.1775 2.22589
53 1 0.472732 6.0816 4.18761
14 1 2.13657 3.6144 6.51536
22 1 0.849963 3.86973 7.11789
63 1 0.710944 4.22406 8.50311
34 1 1.20128 4.03971 11.3231
64 1 1.60379 5.14332 10.62
66 1 1.62983 4.94454 9.19568
41 1 1.81789 7.39816 2.74076
39 1 0.64655 7.95247 0.73583
42 1 1.80127 7.57113 1.38118
43 1 2.88022 8.06628 0.529962
54 1 2.45912 6.96173 5.49817
50 1 2.1139 8.6184 3.57984
52 1 1.05715 6.43445 5.39928
60 1 2.51795 8.26567 4.8546
40 1 1.42744 6.14775 3.09487
108 1 1.63543 8.68916 8.55442
67 1 1.79952 7.39038 8.20068
71 1 0.595222 6.86622 7.73055
59 1 0.120777 6.97583 6.42517
77 1 2.24136 6.27804 11.2902
76 1 2.48531 7.60978 11.515
75 1 1.49059 8.76249 10.9751
89 1 0.578601 10.3717 0.817171
84 1 0.904465 10.2387 2.25976
83 1 2.03648 9.96037 3.02809
80 1 0.721841 9.13876 -0.00907951
96 1 1.10272 10.4007 5.61018
21 1 1.8753 11.4341 5.02742
109 1 0.49928 9.33546 8.3513
107 1 2.05554 9.20863 9.88055
105 1 0.0694531 11.8298 10.3963
3 1 4.91227 1.31722 1.85215
1 1 3.49618 1.16188 1.81157
2 1 5.79058 1.48798 2.87502
5 1 2.92999 2.46652 1.63505
16 1 4.00238 0.1741 5.12525
18 1 3.67015 1.4426 5.93744
10 1 4.77074 2.03153 6.46936
24 1 5.54067 2.66621 8.6349
27 1 4.17081 2.85767 8.9278
25 1 3.18369 1.9398 9.24487
37 1 5.48788 2.95013 11.6584
48 1 4.9157 5.10186 0.284426
44 1 5.55529 5.43941 2.52296
46 1 4.66678 4.72817 1.57264
8 1 3.80239 3.60525 1.89566
56 1 4.88967 5.97582 5.59858
51 1 3.52972 5.94726 5.91832
58 1 5.86727 4.73623 5.53081
70 1 2.92218 5.27477 8.52045
68 1 4.02235 4.35386 9.21515
57 1 3.07723 4.70189 6.82807
9 1 5.5982 2.9405 7.25036
78 1 4.8286 4.13492 11.4907
69 1 4.75295 4.90056 10.2246
47 1 5.00017 8.21082 2.4931
49 1 5.86063 6.87601 2.31926
92 1 5.19363 8.78557 3.74552
55 1 5.76706 7.09456 5.58213
61 1 5.68593 7.98658 6.71713
62 1 5.54136 7.28419 8.11226
65 1 3.21112 6.68618 8.41043
73 1 4.30245 7.67199 8.6496
102 1 4.38234 8.84615 9.50495
72 1 5.50178 6.22735 10.4988
81 1 5.53638 6.29843 11.9256
88 1 3.16052 11.7538 1.74554
90 1 3.52378 9.28747 0.734219
85 1 3.16677 10.8862 0.546368
91 1 5.96558 9.94766 0.971156
82 1 4.81336 9.2079 1.43356
97 1 5.69371 10.4414 5.3384
94 1 5.38137 11.8431 5.42399
87 1 3.05348 11.0339 2.99231
20 1 3.1157 11.5987 4.38248
93 1 5.40697 9.68777 6.62973
100 1 5.24969 10.2199 7.91531
106 1 5.04459 11.5289 8.29163
33 1 3.69534 11.8205 8.94924
98 1 3.54819 11.0494 10.1388
99 1 3.33197 9.65347 10.0001
103 1 3.08848 11.615 11.4354
101 1 5.59047 9.5215 9.10538
114 1 8.75102 1.65355 0.354071
15 1 6.48899 0.417015 5.22552
19 1 6.36314 1.36938 4.08766
123 1 8.78621 0.916327 5.09561
121 1 7.7804 0.0525608 5.54211
26 1 6.05933 -0.0230513 8.9663
129 1 8.40254 0.278055 9.57942
130 1 7.79509 2.1066 11.7836
134 1 6.69513 2.52427 10.9707
137 1 7.04387 0.556663 9.70735
147 1 7.84046 4.84504 2.17445
141 1 6.67468 4.76254 3.00852
150 1 8.11636 4.18266 4.88561
156 1 6.82293 4.3963 4.46614
151 1 8.49581 5.317 7.27471
166 1 7.41215 4.51091 7.71892
23 1 6.33226 4.07074 6.84354
165 1 8.4889 4.49332 9.99295
35 1 6.55703 2.961 9.5531
167 1 7.42178 4.10913 9.06397
171 1 7.85737 8.42108 1.59177
140 1 7.45635 7.88073 0.37089
142 1 8.41201 7.58195 2.50986
145 1 6.27554 7.14641 0.58302
144 1 7.20476 7.26201 3.31533
148 1 7.04596 7.18049 4.79346
154 1 8.26146 6.97467 5.50009
153 1 8.31131 6.64928 6.86552
162 1 8.58367 7.68031 7.85643
188 1 7.88239 8.52742 11.23
160 1 7.7042 7.50484 9.94432
74 1 6.47759 6.94817 9.53484
159 1 9.10997 7.06698 9.16596
169 1 7.1314 9.78861 1.85004
174 1 8.03198 11.2285 3.35859
170 1 7.00924 10.2382 3.18969
95 1 6.07224 9.91788 4.14881
177 1 8.63951 9.78714 6.33395
178 1 8.49214 11.2575 6.37937
180 1 8.00669 9.88749 8.74329
181 1 8.51676 11.2075 8.76944
184 1 8.17159 9.0161 7.59914
104 1 6.80417 9.73574 9.50885
110 1 6.93427 9.61785 10.993
86 1 6.27241 10.4777 11.8859
115 1 10.6774 1.70121 2.15889
112 1 9.83816 1.38236 0.990326
116 1 11.9578 1.2466 2.67859
111 1 9.98093 2.13214 3.44707
126 1 11.0011 0.292166 4.52377
120 1 9.86435 1.161 4.39833
127 1 10.0955 0.61817 7.94689
189 1 11.4263 0.182724 7.51846
135 1 10.0363 2.30854 10.0815
131 1 9.54536 1.2209 9.22576
132 1 11.3472 2.69375 9.7423
119 1 9.93422 4.83082 0.993542
117 1 11.1649 4.61635 1.76749
139 1 9.06077 5.38626 1.98145
128 1 10.2056 3.54845 3.91405
124 1 9.41282 3.84438 5.07232
146 1 10.954 4.52872 3.24583
157 1 11.3542 5.76611 3.96333
161 1 10.3813 4.7493 8.64493
155 1 9.9007 4.82063 7.27332
125 1 10.4842 4.11195 6.13642
122 1 11.9351 4.0913 6.19543
163 1 9.45683 5.61052 9.3933
136 1 9.30418 3.65162 10.8856
113 1 9.94078 4.26012 11.9103
133 1 11.5786 4.01807 9.17959
143 1 9.3883 6.63995 2.66377
168 1 11.8416 7.10227 0.435858
149 1 9.725 7.52852 5.08644
138 1 10.3257 6.80928 3.80243
152 1 10.8708 7.07207 6.25516
158 1 11.1113 7.24228 10.398
164 1 10.3733 7.9424 9.48437
79 1 11.2671 6.66052 11.5516
172 1 10.0008 10.2261 4.5295
173 1 11.063 11.111 4.911
179 1 9.22341 10.7459 3.52703
175 1 9.41198 9.22736 5.31497
182 1 11.3773 9.96425 8.3661
186 1 11.5195 10.9488 7.34071
185 1 9.06896 11.8383 7.58196
176 1 11.9648 10.6039 5.98473
187 1 10.2483 10.1617 10.7318
190 1 11.0352 11.3124 10.9578
183 1 10.4455 9.3427 9.40327
191 1 9.22286 9.41154 11.4613
ITEM: TIMESTEP
5000
ITEM: NUMBER OF ATOMS
191
ITEM: BOX BOUNDS pp pp pp
-4.9298015360005318e-02 1.2049298015360018e+01
-4.9298015360005318e-02 1.2049298015360018e+01
-4.9298015360005318e-02 1.2049298015360018e+01
ITEM: ATOMS id type x y z
4 1 2.08127 2.83895 1.39601
116 1 -0.120537 1.16127 2.59634
12 1 1.2388 0.83646 4.77533
118 1 0.220805 0.749888 3.84819
13 1 1.11195 1.57796 5.9452
17 1 2.25681 2.3774 6.07633
31 1 2.87191 0.997942 8.52465
32 1 1.2824 0.858791 8.33844
11 1 0.506052 0.951369 7.12676
28 1 0.442579 0.81859 9.4871
38 1 2.56635 1.99033 10.6579
30 1 1.3371 2.70744 10.7102
29 1 0.234275 2.04149 10.1289
36 1 2.86388 0.847862 11.4386
7 1 0.26073 4.66318 1.34089
6 1 1.16867 3.67236 0.68939
45 1 1.05118 5.56349 2.08389
53 1 0.488038 6.31097 4.27776
14 1 2.05015 3.8092 6.46671
22 1 0.817952 3.97281 7.06352
63 1 0.598203 4.26453 8.4846
34 1 1.34223 3.9759 11.3899
64 1 1.57382 5.23882 10.7489
66 1 1.71803 4.93467 9.25889
43 1 2.65192 8.33263 0.780142
39 1 0.346347 8.17173 1.01542
42 1 1.60969 8.05891 1.6763
41 1 1.78567 7.81727 3.00197
54 1 2.56865 6.74887 5.45088
50 1 2.33955 8.79583 3.84022
52 1 1.01375 6.51299 5.51412
60 1 2.86594 8.23976 5.0877
40 1 1.37278 6.43784 3.15494
108 1 1.31328 8.64927 8.65337
67 1 1.77545 7.38478 8.32707
71 1 0.782028 6.56624 7.72719
59 1 0.158311 6.7248 6.52859
77 1 2.06853 6.44079 11.178
76 1 2.26655 7.69467 11.6803
75 1 1.25064 8.84166 11.1475
89 1 0.555741 10.4603 0.938091
84 1 1.03887 10.4786 2.20739
80 1 0.451475 9.28845 0.105585
96 1 1.28035 10.7034 5.66705
21 1 1.99535 11.7749 5.03969
83 1 2.1113 10.143 3.23708
176 1 -0.19655 10.5799 5.79295
109 1 0.435353 9.22024 7.85651
107 1 1.7667 9.18035 9.84321
105 1 0.0127612 11.7918 10.1589
3 1 5.24194 1.2379 2.43682
1 1 3.85438 1.10311 2.01926
5 1 3.36331 2.44626 1.90931
16 1 4.12701 0.38183 5.45371
18 1 3.64022 1.73109 5.86455
10 1 4.73144 2.4835 6.40164
24 1 5.51653 2.67386 8.66919
26 1 5.88406 0.149066 8.26061
9 1 5.73384 2.89978 7.23977
25 1 3.21703 2.13969 9.36701
48 1 4.86953 5.31804 0.377907
44 1 5.74151 5.34604 2.67772
46 1 4.8912 4.81202 1.70918
8 1 4.18928 3.56674 2.00849
56 1 5.10949 5.86346 5.85956
58 1 6.09093 4.7323 5.75584
51 1 3.63211 5.84697 5.95561
70 1 3.00651 5.29324 8.53386
57 1 3.01142 4.86796 6.76083
78 1 4.83046 4.25952 11.5051
69 1 4.89843 4.88197 10.2228
68 1 4.03767 4.5019 9.19561
27 1 4.16768 3.07725 9.02413
37 1 5.30105 2.92768 11.6739
47 1 4.88155 7.97987 2.35849
49 1 6.06312 6.98164 2.33097
82 1 4.83228 9.01173 1.32325
55 1 5.88106 7.09319 5.68112
92 1 5.09237 8.53305 3.80097
61 1 5.80451 7.8902 6.79727
62 1 5.53698 7.29693 8.23406
73 1 4.15131 7.66219 8.70658
65 1 3.05584 6.82709 8.65469
72 1 5.7475 6.16912 10.4365
102 1 4.20296 8.81833 9.47003
81 1 5.68752 6.32017 11.9955
88 1 3.35051 11.7493 1.86997
90 1 3.5617 9.46918 0.807274
85 1 3.32848 10.898 0.643017
91 1 5.9637 9.67758 0.982052
97 1 5.67729 10.2713 5.45626
94 1 5.40229 11.7282 5.58294
95 1 6.04778 9.53945 4.26288
87 1 3.11815 11.144 3.29595
20 1 3.29656 11.7768 4.58119
93 1 5.66951 9.40763 6.69584
100 1 5.08817 10.1894 7.73385
106 1 4.69626 11.4995 7.96361
33 1 3.6171 11.9388 8.85459
98 1 3.23505 11.1413 10.058
99 1 3.08477 9.65684 9.81262
103 1 3.09414 11.6198 11.506
101 1 5.30019 9.49733 8.88525
114 1 8.70793 1.4484 0.199638
15 1 6.54404 0.442268 5.48593
19 1 6.42866 1.64107 4.64013
2 1 6.11339 1.83574 3.40347
121 1 7.86894 -0.0223234 5.68907
123 1 8.83228 0.964157 5.06462
129 1 8.23261 0.418824 9.408
130 1 7.6442 1.7305 11.4424
134 1 6.53044 2.56533 11.0035
137 1 6.80354 0.651123 9.11108
35 1 6.52349 3.05758 9.67315
147 1 7.90963 4.48283 2.44974
139 1 9.00922 5.3648 1.90569
141 1 6.74489 4.65725 3.32254
150 1 8.13647 3.72101 5.19328
156 1 6.91635 4.3626 4.73793
151 1 8.43041 5.17883 7.2222
166 1 7.36316 4.58342 7.86526
23 1 6.36405 4.07971 6.95937
165 1 8.49443 4.52009 10.028
167 1 7.4612 3.95527 9.1602
171 1 7.99419 8.42559 1.6589
140 1 7.61727 7.78762 0.493705
142 1 8.36972 7.57994 2.66915
145 1 6.55081 6.94344 0.792904
144 1 7.1445 7.21305 3.30248
148 1 7.09315 7.14226 4.82987
154 1 8.31966 6.96561 5.50088
153 1 8.30543 6.50393 6.76785
162 1 8.43395 7.53504 7.66745
184 1 8.26159 8.94722 7.57438
188 1 7.83416 8.36565 11.1669
160 1 7.62616 7.38527 10.0438
74 1 6.35553 6.93573 9.57179
159 1 8.85747 7.01587 9.17245
169 1 7.10806 9.53703 1.83419
174 1 7.96757 10.8743 3.45074
170 1 6.9202 10.0342 3.24733
177 1 8.75099 9.6147 6.24506
178 1 8.63689 11.1514 6.41416
180 1 7.74894 9.91226 8.5593
181 1 8.50168 11.1503 8.76808
104 1 6.62872 9.61396 9.41623
110 1 6.98747 9.54191 10.7467
86 1 6.4087 10.2631 11.8808
115 1 10.7474 1.72438 2.08412
112 1 9.79813 1.65787 0.964625
111 1 10.1821 2.22569 3.31565
126 1 11.0395 0.0811673 4.39525
120 1 9.82443 1.09581 4.20247
127 1 10.0815 0.669839 7.9084
189 1 11.3467 0.338025 7.24815
135 1 9.92762 2.4061 10.0151
131 1 9.5001 1.32884 9.24371
132 1 11.2212 2.85546 9.82092
119 1 9.89835 4.61764 1.21079
117 1 11.1309 4.49512 1.86562
128 1 10.4774 3.47928 3.91033
124 1 9.634 3.64841 5.14837
146 1 11.1209 4.45365 3.26111
157 1 11.3583 5.86992 3.83033
161 1 10.2956 4.86554 8.53794
155 1 9.79885 4.74316 7.31789
122 1 11.8278 4.07747 6.19935
125 1 10.4434 4.32452 6.10649
163 1 9.35143 5.55094 9.42745
136 1 9.14116 3.64752 10.8973
133 1 11.3298 4.03606 9.00983
113 1 9.73372 4.30678 11.9754
143 1 9.35717 6.63059 2.60298
168 1 11.9035 7.05195 0.42961
149 1 9.73907 7.42781 5.17426
138 1 10.2363 6.72419 3.74637
175 1 9.54416 8.9916 5.18168
152 1 10.8363 6.95292 6.20169
158 1 11.0552 7.29853 10.0727
164 1 10.2028 7.8581 9.1582
79 1 11.4197 6.9093 11.2955
172 1 10.0776 9.90746 4.20622
173 1 11.0926 10.7424 4.66894
179 1 9.25184 10.5509 3.23308
182 1 11.2897 9.72838 7.89953
186 1 11.4134 10.9407 7.04602
185 1 9.18653 11.6611 7.62478
183 1 10.3763 9.22553 8.9169
187 1 10.3368 9.78289 10.2515
190 1 11.2079 10.9059 10.4851
191 1 9.35228 9.10134 11.1157
ITEM: TIMESTEP
6000
ITEM: NUMBER OF ATOMS
191
ITEM: BOX BOUNDS pp pp pp
-1.0247513745584956e-01 1.2102475137455853e+01
-1.0247513745584956e-01 1.2102475137455853e+01
-1.0247513745584956e-01 1.2102475137455853e+01
ITEM: ATOMS id type x y z
4 1 2.16169 2.67106 1.07475
116 1 -0.121671 1.15689 2.62234
12 1 1.19542 0.529111 5.04623
118 1 0.234754 0.609313 4.03349
31 1 2.68994 0.653876 8.66458
32 1 1.31387 0.621291 8.61269
11 1 0.594739 0.810833 7.36654
17 1 2.37232 2.09491 6.20273
13 1 1.23061 1.29726 6.17848
28 1 0.413826 0.712478 9.74641
38 1 2.60474 1.96349 10.6637
30 1 1.36267 2.70877 10.6777
29 1 0.271808 2.03621 10.2188
36 1 2.82476 0.777529 11.325
7 1 0.353281 4.5249 1.19445
6 1 1.07005 3.58532 0.517504
45 1 1.21306 5.43759 1.96119