ITEM: TIMESTEP
1000
ITEM: NUMBER OF ATOMS
191
ITEM: BOX BOUNDS pp pp pp
0.0000000000000000e+00 1.2000000000000000e+01
0.0000000000000000e+00 1.2000000000000000e+01
0.0000000000000000e+00 1.2000000000000000e+01
ITEM: ATOMS id type x y z
12 1 1.20509 0.848646 4.8824
1 1 2.45416 2.21262 3.44646
118 1 0.0568909 0.931156 4.21542
31 1 2.7963 1.20012 8.59879
32 1 1.33362 1.11411 8.47168
11 1 0.524598 1.20419 7.34151
17 1 2.71238 2.40746 6.16634
13 1 1.38231 1.67759 6.10224
28 1 0.600435 1.06936 9.68613
29 1 0.380463 2.49177 10.0643
30 1 1.54051 2.88833 10.6729
38 1 2.76966 2.1392 10.5977
4 1 2.18611 3.42645 1.49308
6 1 1.37529 4.1638 0.681185
7 1 0.316389 4.7799 1.23673
5 1 2.72351 3.38718 2.80547
53 1 0.358511 5.83537 4.1516
14 1 2.48962 3.77126 6.47623
22 1 1.04066 4.12647 6.92577
63 1 0.861504 4.89394 8.19573
34 1 1.60511 4.1806 11.3394
64 1 1.84804 5.17285 10.4568
66 1 1.97643 4.87993 9.13738
39 1 0.181589 8.50532 0.712513
43 1 2.65505 8.15867 0.868042
42 1 1.41328 7.99508 1.5577
45 1 0.410238 6.0196 1.6437
40 1 0.607622 6.50916 2.98891
41 1 1.37971 7.70322 2.91852
54 1 2.3679 6.52629 5.21292
50 1 2.14686 8.46843 3.69532
52 1 1.04645 6.21113 5.25484
60 1 2.43505 7.90596 4.88676
59 1 0.319578 6.54721 6.41356
67 1 1.82448 7.31926 8.10585
71 1 0.824954 6.39916 7.65354
108 1 1.50378 8.72625 8.5489
75 1 1.63839 8.73584 10.9
76 1 2.39605 7.75422 11.4558
77 1 2.36185 6.3648 11.1126
89 1 1.68557 10.4378 0.778156
84 1 1.26087 10.293 2.26055
96 1 1.39937 10.5244 5.80047
21 1 1.92503 11.6793 5.0829
83 1 1.97272 9.86486 3.45811
109 1 0.460584 9.13924 7.92927
107 1 1.96788 9.23301 9.68906
80 1 0.964113 9.47731 11.8748
3 1 3.46182 1.23958 3.5408
16 1 4.12741 0.164967 5.50129
2 1 4.94593 1.47411 3.18049
9 1 5.79569 2.82726 7.153
24 1 5.70492 2.43076 8.65892
26 1 5.83625 0.933983 8.58776
10 1 5.33926 2.06308 6.16372
18 1 3.95423 1.52412 6.0336
25 1 3.47206 2.22466 9.36298
36 1 3.1563 1.05003 11.3995
48 1 4.33373 4.65548 0.709691
44 1 5.99016 5.22315 2.44868
46 1 4.83482 4.57961 2.03733
8 1 3.91788 4.06314 2.96916
58 1 5.89245 4.77236 5.62939
56 1 5.05263 5.94244 5.47293
51 1 3.61934 5.79543 5.77172
70 1 3.40603 5.25056 8.37877
57 1 3.29911 4.88631 6.83742
78 1 5.12797 4.29346 11.5245
68 1 4.40579 4.42649 9.42396
69 1 5.059 5.21573 10.3426
27 1 4.47806 3.0505 9.22505
47 1 5.19546 7.94796 2.43487
82 1 4.90455 8.78538 1.39948
92 1 5.0144 8.61295 3.70179
55 1 5.95341 7.18716 5.53858
73 1 4.19161 7.74413 8.55678
62 1 5.53684 7.49362 7.95057
65 1 3.19209 6.8109 8.4114
61 1 5.63671 8.06901 6.60218
72 1 5.55993 6.5066 10.3029
81 1 5.54413 7.76087 11.0694
88 1 3.49987 11.0428 2.1632
85 1 3.16455 10.4098 1.00517
91 1 5.91697 9.71594 1.04399
90 1 3.67653 9.11918 1.0001
94 1 5.51007 11.7138 5.47563
97 1 5.54044 10.2859 5.25334
87 1 3.11333 10.7168 3.43176
20 1 3.18504 11.8843 4.2963
95 1 5.89847 9.73487 4.04418
93 1 5.64775 9.60237 6.45837
100 1 5.39615 10.4731 7.59658
101 1 5.51693 9.71445 8.84227
106 1 4.93343 11.8978 7.96221
33 1 3.59975 11.9983 8.55921
98 1 3.50555 11.1841 9.68144
103 1 3.22428 11.7935 10.9441
99 1 3.27887 9.79207 9.59418
102 1 4.32834 9.07969 9.01661
114 1 8.60925 1.0636 0.341457
15 1 6.28686 1.03729 5.36838
19 1 6.14573 1.31933 3.9212
121 1 7.76238 0.614062 5.91285
128 1 8.88866 2.97665 3.70562
129 1 8.35478 0.18746 9.37563
130 1 8.26103 2.13424 11.4211
137 1 7.02759 0.504277 9.32774
134 1 6.96563 2.54662 10.8961
35 1 6.87822 2.8466 9.43909
147 1 8.12484 3.78741 2.81579
139 1 8.95702 4.71955 2.11283
141 1 6.86754 4.534 3.29409
150 1 8.14886 4.52859 5.47536
156 1 6.87198 4.6036 4.71775
151 1 8.27125 5.07366 6.80782
166 1 7.22697 4.60737 7.64401
23 1 6.11789 4.13615 6.99852
167 1 7.57641 4.01855 8.90824
165 1 8.33637 4.89564 9.7276
37 1 6.09022 3.28999 11.648
49 1 6.32647 6.66491 2.15676
140 1 7.99375 7.68454 0.383597
142 1 8.58072 7.38481 2.5869
145 1 6.96274 6.67636 0.681379
171 1 8.11027 8.45739 1.63405
144 1 7.31434 7.04926 3.2988
148 1 7.18411 7.1601 4.73754
154 1 8.35935 7.1502 5.53352
153 1 8.1698 6.55922 6.73473
162 1 8.58165 7.49694 7.74916
184 1 8.14193 8.93666 7.51019
188 1 7.99517 8.26872 11.0671
74 1 6.48352 6.90777 9.14608
160 1 7.81743 7.2395 9.89896
169 1 7.09657 9.53003 1.87342
174 1 7.97704 10.9841 3.56656
170 1 6.93637 10.1165 3.21665
177 1 8.34338 9.55504 6.12299
178 1 8.10362 11.1346 6.34415
180 1 7.89147 9.70405 8.60484
181 1 8.60636 10.9521 8.71045
185 1 8.91145 11.4014 7.40967
104 1 6.73251 9.58153 9.41521
110 1 6.49943 9.08283 10.8292
86 1 6.07477 10.1283 11.7812
115 1 10.3233 1.23323 2.44296
116 1 11.6482 0.993539 2.82226
112 1 9.70433 1.22206 1.2498
111 1 9.4857 1.66562 3.53701
126 1 10.9251 0.207048 4.75638
120 1 9.76984 1.11383 4.82804
123 1 9.07273 1.35593 5.95414
127 1 9.85358 0.871564 7.35898
189 1 11.3665 0.497339 7.24559
131 1 9.26943 1.27343 8.8753
135 1 9.92736 2.45712 9.72437
136 1 9.31994 2.91918 10.9834
105 1 11.8296 0.0101488 10.1355
119 1 10.0568 4.12402 1.1601
117 1 11.2913 4.10232 1.87838
157 1 11.3328 4.9189 4.17809
124 1 9.18021 3.70881 5.01453
146 1 11.3855 3.97031 3.30822
138 1 10.2186 5.74187 3.89366
161 1 10.2777 4.94223 8.31128
155 1 9.72347 4.77316 7.05922
133 1 11.4486 4.36918 8.8939
122 1 11.7791 3.7662 6.22739
125 1 10.4313 4.01175 6.05778
163 1 9.44619 5.61201 9.18789
113 1 9.86272 3.82653 11.855
132 1 11.2015 3.12199 9.46298
143 1 9.41135 6.11047 2.82495
168 1 11.139 7.60473 0.563201
149 1 9.69535 7.6531 5.41856
152 1 10.827 7.13612 6.19421
159 1 9.168 7.09184 8.9772
158 1 11.2905 7.02504 10.2119
164 1 10.4181 7.84684 9.49228
79 1 11.2299 6.74242 11.5198
172 1 10.0074 10.0659 4.56232
173 1 11.0291 10.7553 5.07982
175 1 9.42791 9.05859 5.30838
179 1 9.28849 10.6904 3.58403
182 1 11.2861 9.8532 8.11419
186 1 11.4828 11.032 7.29613
176 1 11.9937 10.5963 6.03074
187 1 10.2157 9.88624 10.5578
190 1 10.9942 11.1135 10.7664
183 1 10.5117 9.3033 9.2034
191 1 9.03 9.33326 11.045
ITEM: TIMESTEP
2000
ITEM: NUMBER OF ATOMS
191
ITEM: BOX BOUNDS pp pp pp
-1.1216176776081202e-01 1.2112161767760844e+01
-1.1216176776081202e-01 1.2112161767760844e+01
-1.1216176776081202e-01 1.2112161767760844e+01
ITEM: ATOMS id type x y z
4 1 1.63931 2.77175 1.50727
5 1 2.84896 2.59819 2.245
12 1 1.32969 0.626117 4.84524
118 1 0.203901 0.453364 4.01196
31 1 2.66993 0.940713 8.76837
32 1 1.34029 0.678089 8.53351
11 1 0.636168 0.741973 7.32167
17 1 2.62343 2.15668 6.17344
13 1 1.38457 1.36701 6.16142
28 1 0.374773 0.894738 9.68385
29 1 0.32301 2.37906 10.211
30 1 1.46884 2.63155 10.9958
38 1 2.60294 1.9628 10.7083
36 1 2.91247 0.796106 11.573
7 1 0.446037 4.74067 1.50013
6 1 1.05222 3.79099 0.769413
45 1 1.07432 5.80183 2.14239
14 1 2.26931 3.57808 6.57936
22 1 0.881698 3.86247 7.08513
63 1 0.708776 4.7315 8.39321
34 1 1.4296 3.99445 11.6738
64 1 1.85078 5.14161 10.6828
66 1 1.91414 4.63857 9.18533
39 1 -0.066411 8.82871 0.870971
42 1 1.20301 8.21141 1.64277
43 1 2.36402 8.12563 0.756438
54 1 2.44674 6.5634 5.57221
50 1 2.1268 8.78587 3.91809
52 1 0.827273 6.33056 5.62078
40 1 0.975173 6.59422 3.19117
60 1 2.4662 7.91412 5.0126
53 1 0.255627 6.21489 4.33303
41 1 1.47431 7.86451 2.98754
108 1 1.44851 8.42012 8.61543
67 1 1.7503 6.9996 8.41386
71 1 0.738814 6.18924 8.08448
59 1 0.161854 6.63869 6.81404
109 1 0.272038 8.96432 8.11073
77 1 1.95367 6.40092 11.3371
76 1 1.87496 7.78356 11.6849
75 1 1.25987 8.88613 11.0649
89 1 1.53824 10.6825 0.778111
84 1 1.33607 10.5752 2.17388
80 1 0.729402 9.71788 0.0129375
83 1 2.19924 10.0651 3.24298
21 1 1.94113 11.5907 5.01777
96 1 1.08641 10.5822 5.54475
107 1 1.89164 9.12626 9.78033
3 1 5.15424 1.34067 2.04721
1 1 3.8784 1.70545 2.00917
16 1 4.14236 0.0836467 5.47555
18 1 3.91461 1.37815 5.81802
10 1 5.15692 1.96796 6.33382
24 1 5.5785 2.32759 8.6444
26 1 5.80395 0.867319 8.77585
9 1 5.7368 2.84511 7.29232
25 1 3.29098 2.05076 9.49673
48 1 4.10791 4.91453 0.60778
44 1 5.51125 5.1609 2.64464
46 1 4.38474 4.70005 2.06437
8 1 3.38988 3.83644 2.66034
56 1 5.05901 5.72606 5.51589
58 1 5.95606 4.43806 5.74801
51 1 3.5476 5.71172 5.90966
70 1 3.18592 5.06124 8.52417
57 1 3.14945 4.59743 7.00729
78 1 4.93709 4.70002 11.6667
68 1 4.21323 4.40292 9.3448
69 1 4.7609 5.21145 10.3764
27 1 4.31932 2.96012 9.2777
37 1 5.81855 3.65061 11.6826
47 1 5.00774 7.80029 2.21055
82 1 4.63747 8.67983 1.20009
49 1 5.97156 6.42585 2.17885
92 1 5.02249 8.34493 3.65007
55 1 5.70925 7.11335 5.46917
73 1 4.09842 7.70502 8.56952
62 1 5.45441 7.50857 8.0686
61 1 5.64954 8.06869 6.71696
65 1 3.169 6.60794 8.46956
72 1 5.32153 6.43894 10.078
81 1 5.44063 7.67532 10.9483
102 1 4.2018 9.04767 9.16699
88 1 3.51157 11.3077 1.90734
85 1 3.07951 10.7503 0.447779
91 1 5.66375 9.60888 0.951239
90 1 3.29082 9.0603 0.714417
97 1 5.52965 10.3778 5.18045
94 1 5.5628 11.8026 5.35298
20 1 3.2867 11.612 4.52231
87 1 3.26873 10.9645 3.31126
95 1 5.6883 9.65104 3.88221
93 1 5.35148 9.69741 6.46188
100 1 5.21288 10.6521 7.66561
101 1 5.40236 9.8321 8.84123
33 1 3.55015 11.9004 9.02207
106 1 4.82591 12.0475 8.24233
98 1 3.35276 11.0217 10.206
103 1 3.25995 11.5777 11.4822
99 1 3.25794 9.61498 9.94798
86 1 5.9221 10.0931 11.9167
114 1 8.84804 1.84681 0.448907
2 1 6.2523 1.36628 2.79566
15 1 6.90864 0.107384 4.92602
19 1 7.00629 0.702477 3.67489
121 1 8.1262 -0.0406517 5.69718
123 1 9.00555 0.977888 5.37895
129 1 8.29431 0.413379 9.44031
130 1 8.17364 2.5061 11.5928
137 1 6.82846 0.559863 9.87427
134 1 6.82422 2.80104 11.1446
35 1 6.74706 2.91573 9.48913
147 1 7.85401 4.64338 2.38146
141 1 6.62057 4.51247 3.22769
150 1 8.26233 3.79796 4.96339
156 1 6.89868 4.29798 4.69243
151 1 8.54938 5.25859 7.0674
166 1 7.49616 4.52089 7.71295
23 1 6.26388 4.05216 7.08556
167 1 7.56489 3.98193 8.96753
165 1 8.69097 4.36435 9.87476
171 1 7.94858 8.42534 1.45468
140 1 7.556 7.65924 0.173188
142 1 8.23352 7.55659 2.64585
145 1 6.6452 6.54251 0.737421
144 1 7.10829 7.08626 3.31758
148 1 7.02566 6.98906 4.67227
154 1 8.30595 6.97336 5.40766
153 1 8.44418 6.5907 6.6704
162 1 8.52137 7.586 7.70489
184 1 8.35843 9.03537 7.61949
74 1 6.39852 6.83134 9.0419
188 1 7.76583 8.2366 11.0686
160 1 7.63512 7.18055 9.75113
110 1 6.42408 8.9138 10.8536
159 1 8.89594 7.00536 9.06219
169 1 6.90981 9.39888 1.70906
170 1 6.81995 9.94957 3.02828
174 1 8.01868 10.8072 3.2853
177 1 8.88493 9.72838 6.33562
178 1 8.73599 11.089 6.43253
180 1 7.91339 9.82661 8.74931
181 1 8.49104 11.194 8.78648
104 1 6.68386 9.62186 9.5497
191 1 8.95739 9.39468 10.8584
115 1 10.8343 1.5063 2.11536
112 1 9.92682 1.48384 1.06327
116 1 12.083 0.908311 2.66112
111 1 10.2671 2.08983 3.47498
126 1 11.1876 0.214342 4.60755
120 1 10.1418 1.14053 4.53736
127 1 10.2486 0.575926 7.97623
189 1 11.5939 0.17247 7.42098
131 1 9.51808 1.28425 9.01134
135 1 10.0672 2.50838 9.81093
105 1 11.5723 -0.0645613 10.0851
119 1 9.99498 4.81274 1.15087
117 1 11.2711 4.57214 1.81701
139 1 9.0596 5.35122 2.01699
113 1 9.86761 4.30447 -0.0921656
146 1 10.945 4.52002 3.24199
124 1 9.73373 3.73696 5.05672
128 1 10.459 3.36832 3.85786
157 1 11.2127 5.81266 3.86764
161 1 10.4964 5.12623 8.50201
155 1 9.80683 4.84515 7.10814
125 1 10.5635 4.15437 6.10152
122 1 11.8694 3.83459 6.36478
133 1 11.5939 4.39351 8.83503
163 1 9.35291 5.63854 9.25959
136 1 9.32517 3.34972 10.7926
132 1 11.4444 3.00316 9.60477
143 1 9.32234 6.58297 2.77378
168 1 11.0639 7.95653 0.875023
149 1 9.48843 7.61215 4.75014
138 1 10.1121 6.74217 3.83648
152 1 11.2664 7.45455 6.74359
158 1 11.0861 7.44837 10.4582
164 1 10.5305 7.90002 9.25468
79 1 10.6254 7.3832 11.884
172 1 10.1532 10.2013 4.33031
173 1 11.1795 10.9904 4.81448
179 1 9.37317 10.7163 3.36509
175 1 9.58117 9.21612 5.14856
176 1 11.9573 10.5996 5.84772
182 1 11.4849 9.80189 8.06696
186 1 11.5716 10.9461 7.18033
185 1 9.35497 11.5461 7.64156
187 1 10.1206 10.0007 10.1766
190 1 10.7733 11.101 10.5374
183 1 10.5639 9.38197 9.0776
ITEM: TIMESTEP
3000
ITEM: NUMBER OF ATOMS
191
ITEM: BOX BOUNDS pp pp pp
-2.2866640152145881e-01 1.2228666401521465e+01
-2.2866640152145881e-01 1.2228666401521465e+01
-2.2866640152145881e-01 1.2228666401521465e+01
ITEM: ATOMS id type x y z
4 1 1.94825 2.58359 1.55508
12 1 0.948502 0.638244 4.97095
118 1 -0.139305 0.752878 3.93687
31 1 2.72358 0.776399 8.89506
32 1 1.18553 0.9075 8.74817
11 1 0.561573 0.645468 7.45957
13 1 1.22922 1.1979 6.26704
17 1 2.45853 2.01048 6.25825
28 1 0.274506 0.981068 9.85965
29 1 0.167949 2.34017 10.3333
30 1 1.35095 2.55486 11.0749
38 1 2.41535 1.75164 10.9019
36 1 2.61629 0.439063 11.6399
7 1 0.400415 4.4727 1.57929
6 1 1.22681 3.5434 0.932726
45 1 1.19005 5.47881 2.21612
14 1 2.12797 3.52867 6.47162
63 1 0.38199 4.93587 8.89346
22 1 0.595927 3.62435 6.33885
57 1 2.87961 4.62068 7.05767
34 1 1.29309 3.66659 11.9403
64 1 1.55522 4.87482 11.2234
66 1 1.64285 4.74936 9.64943
39 1 0.0745151 8.51662 0.740316
42 1 1.21627 8.09126 1.42872
43 1 2.42115 8.05339 0.504215
41 1 1.50589 7.81613 2.8167
54 1 2.36876 6.59811 5.49953
50 1 2.15158 8.72373 3.6028
53 1 0.101153 6.44776 4.28135
52 1 0.872746 6.4766 5.52083
40 1 0.872615 6.65158 3.14976
60 1 2.57627 7.8539 4.73959
108 1 1.24398 8.34777 8.91266
67 1 1.66936 6.91909 8.60055
71 1 0.611172 6.15083 7.98102
59 1 0.0868268 6.48984 6.73415
75 1 1.26617 8.70923 11.1243
76 1 1.98228 7.51365 11.7288
77 1 1.70965 6.21047 11.696
107 1 1.95845 8.98041 9.96467
89 1 1.31705 10.5271 0.457859
84 1 1.4035 10.4675 1.88568
85 1 2.78682 10.5222 0.014154
80 1 0.537095 9.49903 -0.311684
96 1 0.875551 10.754 5.16101
21 1 1.6178 11.8553 4.75674
83 1 2.34313 10.0057 2.93446
109 1 0.645479 9.39348 8.07931
3 1 4.77903 0.238841 1.95381
1 1 3.99867 1.45409 1.93185
5 1 3.23967 2.68011 2.1543
18 1 3.78059 1.3633 5.8008
16 1 4.10382 0.0680833 5.2382
9 1 5.71684 2.72318 7.15236
24 1 5.66937 2.32631 8.66225
10 1 4.90294 1.94099 6.31415
26 1 5.81885 0.633431 8.81147
25 1 3.13847 1.97223 9.72393
48 1 4.27905 5.11318 0.515463
8 1 3.88388 3.81704 2.59668
46 1 4.55125 4.8003 1.9581
44 1 5.58267 5.51937 2.50825
58 1 5.97072 4.75791 5.50185
56 1 4.98319 5.82348 5.71121
70 1 2.98681 4.96707 8.79255
51 1 3.62569 5.58535 6.16092
78 1 4.8096 4.47713 11.7177
68 1 4.12485 4.28692 9.46379
69 1 4.89062 4.94027 10.3994
37 1 5.76038 3.39347 11.8078
27 1 4.19536 2.89422 9.26432
47 1 4.64642 8.07448 2.38066
82 1 4.55108 9.01123 1.32967
49 1 5.61337 6.91586 2.55022
55 1 5.63545 7.12843 5.60309
92 1 4.8531 8.79536 3.65707
73 1 4.22769 7.58273 8.74817
62 1 5.46658 7.30208 8.06579
61 1 5.53639 7.96984 6.81746
65 1 2.96704 6.57962 8.74368
81 1 5.7107 6.7977 11.6417
72 1 5.64768 6.16505 10.3378
102 1 4.23564 8.85969 9.36065
88 1 4.06049 11.5118 2.45027
91 1 5.77988 9.50429 0.854568
90 1 3.36484 9.19744 0.441667
97 1 5.52479 10.3563 5.3593
94 1 5.44866 11.7842 5.3462
95 1 5.94053 9.66709 4.08226
87 1 3.21805 11.0185 3.46638
20 1 3.00776 11.8661 4.63159
93 1 5.53871 9.76816 6.76948
100 1 5.34435 10.5099 7.95382
106 1 4.81397 12.1494 8.8415
98 1 3.15827 11.0963 10.1158
99 1 3.18433 9.65843 9.87412
103 1 3.09737 11.5153 11.4408
101 1 5.44751 9.61495 9.16747
33 1 3.42236 12.0072 9.10891
114 1 8.79669 1.67805 0.135827
2 1 6.18673 0.275358 2.32039
15 1 6.57295 0.0941848 4.92594
19 1 6.52725 0.629196 3.57742
123 1 8.85943 0.937681 5.15766
121 1 7.95622 -0.0742138 5.38768
129 1 8.37641 0.0907477 9.5548
130 1 8.11276 2.49104 11.6862
137 1 6.97889 0.398872 9.43989
134 1 6.86639 2.6833 11.0709
35 1 6.71384 2.84601 9.63116
147 1 7.76197 4.48798 2.05216
139 1 9.10118 5.19161 1.91111
141 1 6.59069 4.69783 2.91024
156 1 6.83612 4.41659 4.398
150 1 8.19064 4.20122 4.9944
151 1 8.59396 5.34888 7.2812
166 1 7.53989 4.47738 7.67338
23 1 6.38112 3.94661 6.92311
167 1 7.45246 3.92451 9.03037
165 1 8.40333 4.26458 10.0273
171 1 7.80815 8.35267 1.26803
142 1 8.04254 7.29392 2.23996
140 1 8.12575 8.23615 -0.205684
144 1 6.86966 7.21333 3.17996
148 1 6.83191 7.28845 4.60834
154 1 8.16138 7.27589 5.43001
153 1 8.38791 6.79317 6.69976
162 1 8.05358 7.81372 7.70687
74 1 6.34618 6.81541 9.26797
145 1 8.42631 7.11903 11.5191
159 1 8.61162 6.75815 10.1604
160 1 7.73631 7.2494 9.0207
169 1 6.90563 9.34471 1.7169
174 1 8.04188 10.9216 3.15154
170 1 7.07033 9.95013 2.99765
177 1 8.66683 9.87242 6.1146
178 1 8.55533 11.3901 6.19838
180 1 7.85333 10.1351 8.75972
181 1 8.49601 11.3179 8.65499
184 1 8.27334 9.25223 7.45064
104 1 6.77396 9.8137 9.68771
110 1 7.00033 9.97748 11.0921
188 1 8.31558 9.47967 11.4845
86 1 6.18094 10.2896 12.1749
115 1 10.8402 1.92313 2.31281
112 1 9.76882 1.61543 1.2159
116 1 12.0579 1.33868 2.73147
111 1 10.3082 2.31289 3.5547
120 1 10.1343 1.27543 4.38835
126 1 11.1064 0.093188 4.4448
127 1 10.3032 0.418009 7.93688
189 1 11.6226 0.0852689 7.49103
135 1 10.181 2.27342 10.1304
131 1 9.64529 1.06479 9.21527
105 1 12.1037 -0.153848 10.5555
119 1 10.2124 4.55924 1.05341
117 1 11.4309 4.45167 1.94077
146 1 11.1254 4.61538 3.34179
124 1 9.52798 3.99642 5.11428
128 1 10.3973 3.6613 3.99452
161 1 10.3941 5.06671 8.81531
155 1 9.91683 4.68487 7.39114
122 1 11.6869 3.61428 6.04998
125 1 10.4231 4.12216 6.18884
163 1 9.33995 5.41326 9.80643
136 1 9.25392 3.32072 10.9097
113 1 10.225 4.10081 12.1463
132 1 11.5048 3.03893 9.79093
133 1 11.5882 4.29856 9.207
168 1 11.6118 7.54452 0.354884
143 1 9.12553 6.47839 2.54773
149 1 9.22651 7.79698 4.71797
138 1 9.86727 6.90416 3.84681
157 1 11.1128 5.99379 4.08687
152 1 11.423 7.27838 6.68379
158 1 11.0607 7.40837 10.2874
164 1 10.841 8.05527 9.07236
79 1 11.269 7.23015 11.55
172 1 10.143 10.2381 4.1133
173 1 11.059 11.0738 4.67489
175 1 9.46678 9.25788 4.87776
179 1 9.40957 10.6147 3.03204
176 1 11.9919 10.7667 5.74224
182 1 11.9098 10.0826 8.1352
186 1 11.6359 11.1138 7.14957
185 1 9.0775 11.8554 7.3926
183 1 10.9862 9.48576 9.0903
187 1 10.7308 10.1012 10.3642
190 1 11.3225 11.2823 10.6838
191 1 9.4628 9.83496 11.0183
ITEM: TIMESTEP
4000
ITEM: NUMBER OF ATOMS
191
ITEM: BOX BOUNDS pp pp pp
-1.8759695424289830e-01 1.2187596954242892e+01
-1.8759695424289830e-01 1.2187596954242892e+01
-1.8759695424289830e-01 1.2187596954242892e+01
ITEM: ATOMS id type x y z
5 1 2.81821 2.73704 2.29187
12 1 0.84996 0.564134 4.81966
118 1 -0.189176 0.575637 3.88706
11 1 0.686536 0.736962 7.35816
32 1 1.3597 0.89581 8.52912
17 1 2.50761 1.96714 6.0977
13 1 1.35546 1.15786 6.17244
31 1 2.80627 0.883969 8.796
28 1 0.465723 1.11488 9.75967
29 1 0.275937 2.37535 10.2839
30 1 1.4699 2.75117 11.1347
38 1 2.66117 1.85768 10.9781
105 1 -0.162564 0.049672 10.5923
36 1 2.83688 0.598509 11.6044
7 1 -0.0105621 4.86362 1.38538
6 1 0.865366 4.07044 0.740945
4 1 1.46527 3.00971 1.62301
14 1 2.20008 3.38892 6.36521
63 1 0.60875 5.07477 8.72009
22 1 0.715436 3.5782 6.38068
57 1 2.94558 4.54289 6.91006
34 1 1.32217 4.05419 11.7337
64 1 1.81385 5.0923 10.9159
66 1 1.80559 4.78415 9.42373
39 1 0.119054 8.63134 0.700612
42 1 1.34422 8.20542 1.38721
43 1 2.51093 8.2164 0.563232
41 1 1.3744 7.89537 2.75227
45 1 0.37256 6.11029 1.88674
54 1 2.36215 6.73671 5.54408
50 1 2.0865 8.76456 3.67433
53 1 -0.0554987 6.30587 4.24232
52 1 0.759753 6.39093 5.42825
60 1 2.6808 8.14486 4.80213
40 1 0.659014 6.79171 3.06756
108 1 1.40838 8.46666 8.52722
67 1 1.79036 7.16994 8.25768
59 1 0.0169039 6.53516 6.66861
71 1 0.683177 6.22609 7.92885
75 1 1.36168 8.58399 11.0839
76 1 2.10047 7.64056 11.7571
77 1 2.22806 6.35377 11.3141
107 1 1.9151 9.03004 9.77456
89 1 1.54164 10.5726 0.388103
84 1 1.26685 10.6575 1.88654
96 1 0.897503 10.5567 5.44195
21 1 1.59016 11.605 4.90567
83 1 2.08234 10.2308 3.05451
109 1 0.5912 9.23615 7.82038
80 1 0.684844 9.62197 12.092
3 1 4.64288 0.583961 2.26051
1 1 3.54844 1.54208 2.31504
16 1 4.04022 -0.00112279 5.33243
2 1 5.84854 0.992675 2.8663
18 1 3.80757 1.32627 5.81591
10 1 4.7864 2.04676 6.45749
24 1 5.62635 2.51975 8.635
26 1 5.77186 0.0179067 8.67024
9 1 5.76363 2.83164 7.2377
25 1 3.34352 1.86208 9.6906
27 1 4.22272 2.80118 9.22606
48 1 4.67014 4.84126 0.459878
8 1 3.62163 3.86079 2.43364
46 1 4.4483 4.86662 1.86244
44 1 5.42023 5.42992 2.62101
56 1 4.87642 5.93626 5.90942
58 1 5.79527 4.79136 5.76398
51 1 3.45338 5.67286 6.1694
70 1 2.98637 5.05259 8.52901
78 1 4.78538 4.29355 11.4874
68 1 4.27785 4.3103 9.26175
69 1 5.02789 5.05959 10.247
37 1 5.60516 3.14149 11.5492
47 1 4.62175 7.99444 2.45712
82 1 4.76653 8.74867 1.17349
49 1 5.46378 6.90419 2.72796
55 1 5.67011 7.26255 5.62138
92 1 4.63259 8.966 3.5641
73 1 4.10956 7.57214 8.78935
62 1 5.35337 7.2915 8.14918
61 1 5.44354 8.12273 6.81918
65 1 3.0458 6.70621 8.69513
102 1 4.26462 8.77031 9.60705
88 1 4.12756 11.6867 2.35652
91 1 5.9457 9.28985 0.762074
90 1 3.58486 9.2521 0.492204
85 1 2.89603 10.4881 -0.00678542
97 1 5.41746 10.3867 5.40647
94 1 5.30816 11.8556 5.41023
20 1 2.98839 11.6451 4.62845
87 1 3.1947 11.1295 3.29659
95 1 5.63362 9.84755 3.98945
93 1 5.3481 9.61529 6.68258
100 1 5.14989 10.2744 7.84674
106 1 4.67707 11.6301 8.17484
33 1 3.34761 11.974 8.74466
103 1 3.1669 11.5349 11.247
99 1 3.20152 9.69212 9.7026
98 1 3.17169 11.142 9.92214
101 1 5.56243 9.51794 9.08447
114 1 8.81897 1.25569 0.0929335
15 1 6.57978 0.0249295 5.24604
19 1 6.38573 1.02748 4.12438
123 1 8.82733 0.884358 5.0584
129 1 8.44712 0.261962 9.43275
130 1 8.07023 2.20947 11.523
137 1 7.01261 0.15865 9.27714
134 1 6.79536 2.50461 10.939
35 1 6.73798 2.82896 9.60545
147 1 7.58589 4.42757 2.36029
139 1 8.77416 5.13972 2.0851
156 1 6.7632 4.50442 4.62931
150 1 8.18936 4.2944 4.97289
141 1 6.45521 4.6675 3.22694
151 1 8.56054 5.29553 7.21761
166 1 7.48509 4.40589 7.6296
23 1 6.24174 4.04237 6.96681
167 1 7.71124 3.74261 9.0141
165 1 8.71727 4.33221 9.91657
171 1 8.08005 8.40159 1.47247
142 1 7.93434 7.3842 2.57124
140 1 8.4407 8.06033 0.0572184
143 1 9.0445 6.43924 2.72498
144 1 6.78427 7.239 3.43301
148 1 6.86761 7.23709 4.9024
154 1 8.08749 7.24071 5.56962
153 1 8.27452 6.664 6.89823
162 1 8.35495 7.58464 7.87557
74 1 6.34728 6.85403 9.00619
159 1 8.83723 6.69985 10.1133
160 1 7.89084 7.18509 9.05133
81 1 6.40989 6.82293 11.311
72 1 5.80086 6.14706 10.1919
169 1 7.00263 9.2912 1.6892
174 1 8.02518 10.7857 3.17761
170 1 6.88006 10.1647 2.86133
121 1 7.97713 12.0682 5.37569
177 1 8.8326 9.68104 6.4406
178 1 8.6954 11.1333 6.20059
180 1 8.3124 9.87923 8.72997
181 1 8.93015 11.2846 8.7489
184 1 8.53774 9.01192 7.67217
104 1 6.91641 9.68736 9.6895
110 1 7.08987 9.65789 11.0983
188 1 8.39383 9.34757 11.643
86 1 6.17422 10.1312 12.0391
115 1 10.6601 1.59801 2.19053
112 1 9.74634 1.44024 1.12296
116 1 11.8748 1.03428 2.54176
111 1 9.95264 2.06349 3.29715
120 1 10.017 1.22188 4.47166
126 1 11.0265 0.166331 4.49839
127 1 10.2698 0.590113 7.82568
189 1 11.6538 0.213564 7.42234
135 1 10.3309 2.47662 9.84
131 1 9.73009 1.16851 9.12946
119 1 9.83317 4.4291 1.18473
117 1 11.1479 4.41735 1.88438
113 1 9.68028 3.87063 -0.135087
146 1 10.8877 4.51386 3.3558
124 1 9.57911 3.84561 5.24859
128 1 10.1989 3.36756 3.92231
161 1 10.4674 5.03277 8.64536
155 1 9.89705 4.77645 7.41986
125 1 10.4289 3.87748 6.39057
122 1 11.7812 3.51919 6.18942
163 1 9.47186 5.45721 9.69663
133 1 11.7378 4.37034 8.9851
132 1 11.5966 3.09365 9.71024
136 1 9.191 3.27779 10.8309
168 1 11.3328 7.91698 0.433844
138 1 9.80129 6.83677 3.94029
149 1 9.42868 7.72025 4.97823
175 1 9.71307 9.10609 5.35965
157 1 10.9139 5.83031 3.96652
152 1 11.1726 7.02315 6.5599
158 1 11.2508 7.36542 10.4327
79 1 10.6097 7.33619 11.7183
164 1 11.3687 8.30545 9.5554
145 1 9.19666 7.17275 11.4703
172 1 10.129 10.0571 4.49503
173 1 10.9489 11.1049 4.84296
179 1 9.20229 10.3333 3.47722
176 1 11.9262 10.6496 5.8582
182 1 11.8745 10.0192 8.10979
186 1 11.6587 11.1429 7.17862
185 1 9.37864 11.8234 7.40489
187 1 10.6695 10.4808 10.3577
190 1 11.4117 11.4482 11.0171
191 1 9.58284 10.0225 11.0222
183 1 11.2357 9.66622 9.35419
ITEM: TIMESTEP
5000
ITEM: NUMBER OF ATOMS
191
ITEM: BOX BOUNDS pp pp pp
-1.1125749584619048e-01 1.2111257495846157e+01
-1.1125749584619048e-01 1.2111257495846157e+01
-1.1125749584619048e-01 1.2111257495846157e+01
ITEM: ATOMS id type x y z
4 1 1.77376 2.69553 1.57685
12 1 1.01102 0.544572 4.71723
17 1 2.44516 2.09292 5.97162
13 1 1.20085 1.22331 5.93209
11 1 0.622152 0.747133 7.20925
32 1 1.48833 0.87081 8.41102
31 1 3.00883 0.925185 8.68175
28 1 0.554761 1.08812 9.55202
29 1 0.476589 2.42789 10.0077
30 1 1.59296 2.72261 10.9459
38 1 2.67433 1.87475 10.9957
105 1 -0.0190726 -0.0143035 9.97628
36 1 2.72434 0.541435 11.5483
7 1 0.322624 4.59194 1.69902
6 1 1.03039 3.68168 0.872485
45 1 0.930885 5.81219 1.97824
57 1 3.03323 4.58742 6.02491
63 1 0.711795 5.10789 8.82232
14 1 2.09509 3.60692 6.03899
22 1 0.785198 3.87258 6.34733
34 1 1.33832 3.86438 11.8044
64 1 1.3669 5.03006 11.0695
66 1 1.78502 4.98647 9.75759
43 1 2.2602 8.19244 0.73713
42 1 1.12018 8.1671 1.52486
41 1 1.13817 7.95429 2.88631
39 1 -0.107685 8.56742 0.697898
54 1 2.52767 6.80837 5.05852
50 1 1.96909 8.85531 3.60653
53 1 0.216423 6.43066 4.29805
52 1 1.10342 6.60317 5.4079
40 1 0.818277 6.64602 3.10068
108 1 1.6976 8.58054 8.64187
67 1 1.93117 7.22335 8.32657
59 1 0.358396 6.68858 6.59397
71 1 0.879003 6.30541 7.86083
75 1 1.29904 8.9005 11.1079
76 1 1.79627 7.66212 11.7295
77 1 1.5208 6.3084 11.5934
107 1 2.09168 9.22684 9.93893
89 1 1.29533 10.497 0.695325
84 1 1.15908 10.6354 2.03491
85 1 2.78168 10.4934 0.386403
96 1 0.927671 10.4154 5.2966
21 1 1.70507 11.5081 4.93057
83 1 2.07003 10.1457 3.01867
109 1 0.964948 9.35058 7.70825
80 1 0.543121 9.63406 12.0663
3 1 4.63603 0.26308 2.13426
1 1 3.50529 1.03169 1.8265
5 1 3.02044 2.37446 2.04568
2 1 5.93674 1.03289 2.58168
16 1 4.10483 0.111319 5.25351
18 1 3.86789 1.46774 5.78963
10 1 4.83091 2.10261 6.53122
24 1 5.48339 2.69453 8.79876
25 1 3.39133 1.98702 9.61964
48 1 4.51126 4.83099 0.573053
8 1 3.84832 3.57058 2.3904
46 1 4.69919 4.63523 1.92094
44 1 5.61593 5.4418 2.75682
56 1 4.93655 5.87517 5.53524
51 1 3.49506 5.8618 5.5615
58 1 5.92727 4.73468 5.76861
9 1 5.48798 2.82767 7.41602
78 1 5.01563 4.38137 11.6707
68 1 4.13383 4.45864 9.52611
69 1 5.01512 5.11 10.4074
27 1 4.25124 3.08513 9.4546
70 1 3.00922 5.31614 9.33714
47 1 4.59579 7.78602 2.5568
82 1 4.50941 8.83604 1.43124
49 1 5.5659 6.81248 2.69777
55 1 5.65896 7.25275 5.7278
92 1 4.27511 8.49465 3.89185
60 1 2.95933 8.10284 4.3808
65 1 3.14023 6.59943 8.82036
62 1 5.46929 7.22479 8.09696
61 1 5.5645 8.01832 6.87647
73 1 4.2396 7.51253 8.80001
102 1 4.48111 8.87504 9.38636
72 1 5.71059 6.24751 10.3579
88 1 4.43624 11.2533 2.63335
91 1 5.65286 9.32113 0.805458
90 1 3.26732 9.21549 0.838693
97 1 5.40967 10.1816 5.40705
94 1 5.38711 11.6947 5.31451
95 1 5.5761 9.3995 4.09184
87 1 3.28488 10.9257 3.45788
20 1 3.05614 11.6396 4.64261
93 1 5.39241 9.43851 6.68063
100 1 5.43875 10.2657 7.78959
106 1 4.98278 11.6412 8.16741
33 1 3.69322 11.8823 8.89162
101 1 5.67602 9.55084 9.03459
103 1 3.20698 11.3978 11.543
99 1 3.43892 9.64442 9.94211
98 1 3.70828 10.9758 10.139
114 1 8.85298 1.30423 0.052836
123 1 8.88088 0.947353 5.25407
19 1 6.60014 0.944959 3.72693
15 1 6.65865 0.125653 4.9624
121 1 7.93168 -0.0929827 5.60181
26 1 6.01153 0.220956 8.65973
129 1 8.39858 0.401398 9.43822
130 1 8.0708 2.27115 11.5361
134 1 6.8007 2.50384 10.9727
137 1 7.03136 0.634712 9.48861
35 1 6.74432 2.74665 9.52856
147 1 7.85907 4.38841 2.31415
139 1 9.03828 5.0123 2.1284
156 1 6.84103 4.4273 4.56631
150 1 8.14554 3.92455 5.01201
141 1 6.79843 4.63484 3.18334
151 1 8.36308 5.35249 7.2247
166 1 7.37755 4.47034 7.80066
23 1 6.20854 3.98562 6.89957
165 1 8.68922 4.21003 10.0314
167 1 7.70187 3.71167 8.94142
136 1 8.83913 3.50773 11.328
37 1 6.04205 3.33746 11.8375
171 1 7.8582 8.35987 1.43295
142 1 8.00393 7.34176 2.4114
140 1 8.27359 8.29101 0.122085
144 1 6.82085 7.20631 3.38207
148 1 6.92252 7.30056 4.79715
154 1 8.14154 7.20039 5.49653
153 1 8.21945 6.77297 6.87611
162 1 8.31241 7.72846 7.88795
74 1 6.47531 6.72093 9.13905
159 1 8.77035 6.5013 10.2381
160 1 7.7763 7.15642 9.25718
145 1 9.00625 7.09696 11.5801
81 1 5.91318 7.02386 11.4704
169 1 6.85774 9.34956 1.83102
174 1 7.59312 10.751 3.43604
170 1 6.61806 9.96295 3.13357
177 1 8.75557 9.76132 6.41022
178 1 8.49396 11.2078 6.44231
180 1 7.98218 9.98263 8.63833
181 1 8.49307 11.2954 8.78924
184 1 8.40412 9.16757 7.58855
104 1 6.9362 9.67646 9.51298
110 1 7.06233 9.84274 10.8925
188 1 8.33198 9.48917 11.4664
86 1 6.06282 9.8856 11.8
115 1 10.5881 1.93632 2.14312
112 1 9.6612 1.25953 1.17533
116 1 11.9712 1.48925 2.40559
111 1 10.0823 2.22673 3.45711
120 1 9.87057 0.995142 4.35186
126 1 11.0258 0.0380465 4.11864
118 1 12.3029 0.67662 3.59841
127 1 10.0484 0.496011 7.55486
189 1 11.4451 0.15192 7.17957
131 1 9.59383 1.15444 8.78369
135 1 10.4213 2.33814 9.08981
119 1 10.0177 4.53983 1.40345
117 1 11.1891 4.58963 2.08389
113 1 9.6693 3.96814 0.195505
146 1 11.0425 4.69183 3.46122
124 1 9.60598 3.95035 5.2184
128 1 10.3329 3.48332 4.01485
161 1 10.3477 5.19806 8.73784
155 1 9.74584 4.94374 7.43267
125 1 10.3768 4.34017 6.33609
122 1 11.7806 4.34985 6.3778
163 1 9.47311 5.35707 9.80433
133 1 11.6647 4.40874 9.03752
132 1 11.5421 3.07802 9.47672
168 1 10.9534 7.80222 0.745924
143 1 9.02544 6.43242 2.75616
138 1 9.8787 6.81319 3.92015
149 1 9.26077 7.64918 4.85331
157 1 11.1601 6.02069 4.06816
152 1 11.469 7.60069 6.48598
158 1 11.2784 7.23923 10.5105
79 1 10.4341 7.17728 11.8654
164 1 11.2521 8.05552 9.45892
172 1 9.81191 10.0524 4.18291
173 1 10.8789 10.9002 4.63467
176 1 11.7462 10.6559 5.73943
179 1 8.92762 10.5124 3.22081
175 1 9.40371 9.09857 5.28701
182 1 11.8048 9.92846 8.00152
186 1 11.6081 10.9465 7.19492
185 1 9.06682 11.7337 7.48986
187 1 10.6844 10.1911 10.2667
190 1 11.3188 11.432 10.5736
191 1 9.50654 9.99371 10.9821
183 1 11.1233 9.38782 9.15174
ITEM: TIMESTEP
6000
ITEM: NUMBER OF ATOMS
191
ITEM: BOX BOUNDS pp pp pp
-1.4800554666707869e-01 1.2148005546667060e+01
-1.4800554666707869e-01 1.2148005546667060e+01
-1.4800554666707869e-01 1.2148005546667060e+01
ITEM: ATOMS id type x y z
12 1 0.996939 0.614609 4.81825
17 1 2.42756 2.1286 5.88164
11 1 0.589748 0.905283 7.27744
32 1 1.47784 0.743446 8.49753
31 1 2.87248 0.874669 8.77705
13 1 1.31055 1.28337 6.06209
28 1 0.593774 0.770788 9.60988
29 1 0.279805 2.08823 9.97127
30 1 1.17422 2.59672 10.9888
38 1 2.4613 1.80517 10.9568
36 1 2.64658 0.536795 11.6625
7 1 0.223574 4.57403 1.58346
6 1 0.906392 3.67713 0.702646
45 1 1.26508 5.3659 2.18037
4 1 1.95289 2.89505 1.32257
22 1 0.591058 3.76639 5.66842
14 1 2.00811 3.46629 5.55613