ITEM: TIMESTEP
1000
ITEM: NUMBER OF ATOMS
191
ITEM: BOX BOUNDS pp pp pp
0.0000000000000000e+00 1.2000000000000000e+01
0.0000000000000000e+00 1.2000000000000000e+01
0.0000000000000000e+00 1.2000000000000000e+01
ITEM: ATOMS id type x y z
12 1 1.20509 0.848646 4.8824
1 1 2.45416 2.21262 3.44646
118 1 0.0568909 0.931156 4.21542
31 1 2.7963 1.20012 8.59879
32 1 1.33362 1.11411 8.47168
11 1 0.524598 1.20419 7.34151
17 1 2.71238 2.40746 6.16634
13 1 1.38231 1.67759 6.10224
28 1 0.600435 1.06936 9.68613
29 1 0.380463 2.49177 10.0643
30 1 1.54051 2.88833 10.6729
38 1 2.76966 2.1392 10.5977
4 1 2.18611 3.42645 1.49308
6 1 1.37529 4.1638 0.681185
7 1 0.316389 4.7799 1.23673
5 1 2.72351 3.38718 2.80547
53 1 0.358511 5.83537 4.1516
14 1 2.48962 3.77126 6.47623
22 1 1.04066 4.12647 6.92577
63 1 0.861504 4.89394 8.19573
34 1 1.60511 4.1806 11.3394
64 1 1.84804 5.17285 10.4568
66 1 1.97643 4.87993 9.13738
39 1 0.181589 8.50532 0.712513
43 1 2.65505 8.15867 0.868042
42 1 1.41328 7.99508 1.5577
45 1 0.410238 6.0196 1.6437
40 1 0.607622 6.50916 2.98891
41 1 1.37971 7.70322 2.91852
54 1 2.3679 6.52629 5.21292
50 1 2.14686 8.46843 3.69532
52 1 1.04645 6.21113 5.25484
60 1 2.43505 7.90596 4.88676
59 1 0.319578 6.54721 6.41356
67 1 1.82448 7.31926 8.10585
71 1 0.824954 6.39916 7.65354
108 1 1.50378 8.72625 8.5489
75 1 1.63839 8.73584 10.9
76 1 2.39605 7.75422 11.4558
77 1 2.36185 6.3648 11.1126
89 1 1.68557 10.4378 0.778156
84 1 1.26087 10.293 2.26055
96 1 1.39937 10.5244 5.80047
21 1 1.92503 11.6793 5.0829
83 1 1.97272 9.86486 3.45811
109 1 0.460584 9.13924 7.92927
107 1 1.96788 9.23301 9.68906
80 1 0.964113 9.47731 11.8748
3 1 3.46182 1.23958 3.5408
16 1 4.12741 0.164967 5.50129
2 1 4.94593 1.47411 3.18049
9 1 5.79569 2.82726 7.153
24 1 5.70492 2.43076 8.65892
26 1 5.83625 0.933983 8.58776
10 1 5.33926 2.06308 6.16372
18 1 3.95423 1.52412 6.0336
25 1 3.47206 2.22466 9.36298
36 1 3.1563 1.05003 11.3995
48 1 4.33373 4.65548 0.709691
44 1 5.99016 5.22315 2.44868
46 1 4.83482 4.57961 2.03733
8 1 3.91788 4.06314 2.96916
58 1 5.89245 4.77236 5.62939
56 1 5.05263 5.94244 5.47293
51 1 3.61934 5.79543 5.77172
70 1 3.40603 5.25056 8.37877
57 1 3.29911 4.88631 6.83742
78 1 5.12797 4.29346 11.5245
68 1 4.40579 4.42649 9.42396
69 1 5.059 5.21573 10.3426
27 1 4.47806 3.0505 9.22505
47 1 5.19546 7.94796 2.43487
82 1 4.90455 8.78538 1.39948
92 1 5.0144 8.61295 3.70179
55 1 5.95341 7.18716 5.53858
73 1 4.19161 7.74413 8.55678
62 1 5.53684 7.49362 7.95057
65 1 3.19209 6.8109 8.4114
61 1 5.63671 8.06901 6.60218
72 1 5.55993 6.5066 10.3029
81 1 5.54413 7.76087 11.0694
88 1 3.49987 11.0428 2.1632
85 1 3.16455 10.4098 1.00517
91 1 5.91697 9.71594 1.04399
90 1 3.67653 9.11918 1.0001
94 1 5.51007 11.7138 5.47563
97 1 5.54044 10.2859 5.25334
87 1 3.11333 10.7168 3.43176
20 1 3.18504 11.8843 4.2963
95 1 5.89847 9.73487 4.04418
93 1 5.64775 9.60237 6.45837
100 1 5.39615 10.4731 7.59658
101 1 5.51693 9.71445 8.84227
106 1 4.93343 11.8978 7.96221
33 1 3.59975 11.9983 8.55921
98 1 3.50555 11.1841 9.68144
103 1 3.22428 11.7935 10.9441
99 1 3.27887 9.79207 9.59418
102 1 4.32834 9.07969 9.01661
114 1 8.60925 1.0636 0.341457
15 1 6.28686 1.03729 5.36838
19 1 6.14573 1.31933 3.9212
121 1 7.76238 0.614062 5.91285
128 1 8.88866 2.97665 3.70562
129 1 8.35478 0.18746 9.37563
130 1 8.26103 2.13424 11.4211
137 1 7.02759 0.504277 9.32774
134 1 6.96563 2.54662 10.8961
35 1 6.87822 2.8466 9.43909
147 1 8.12484 3.78741 2.81579
139 1 8.95702 4.71955 2.11283
141 1 6.86754 4.534 3.29409
150 1 8.14886 4.52859 5.47536
156 1 6.87198 4.6036 4.71775
151 1 8.27125 5.07366 6.80782
166 1 7.22697 4.60737 7.64401
23 1 6.11789 4.13615 6.99852
167 1 7.57641 4.01855 8.90824
165 1 8.33637 4.89564 9.7276
37 1 6.09022 3.28999 11.648
49 1 6.32647 6.66491 2.15676
140 1 7.99375 7.68454 0.383597
142 1 8.58072 7.38481 2.5869
145 1 6.96274 6.67636 0.681379
171 1 8.11027 8.45739 1.63405
144 1 7.31434 7.04926 3.2988
148 1 7.18411 7.1601 4.73754
154 1 8.35935 7.1502 5.53352
153 1 8.1698 6.55922 6.73473
162 1 8.58165 7.49694 7.74916
184 1 8.14193 8.93666 7.51019
188 1 7.99517 8.26872 11.0671
74 1 6.48352 6.90777 9.14608
160 1 7.81743 7.2395 9.89896
169 1 7.09657 9.53003 1.87342
174 1 7.97704 10.9841 3.56656
170 1 6.93637 10.1165 3.21665
177 1 8.34338 9.55504 6.12299
178 1 8.10362 11.1346 6.34415
180 1 7.89147 9.70405 8.60484
181 1 8.60636 10.9521 8.71045
185 1 8.91145 11.4014 7.40967
104 1 6.73251 9.58153 9.41521
110 1 6.49943 9.08283 10.8292
86 1 6.07477 10.1283 11.7812
115 1 10.3233 1.23323 2.44296
116 1 11.6482 0.993539 2.82226
112 1 9.70433 1.22206 1.2498
111 1 9.4857 1.66562 3.53701
126 1 10.9251 0.207048 4.75638
120 1 9.76984 1.11383 4.82804
123 1 9.07273 1.35593 5.95414
127 1 9.85358 0.871564 7.35898
189 1 11.3665 0.497339 7.24559
131 1 9.26943 1.27343 8.8753
135 1 9.92736 2.45712 9.72437
136 1 9.31994 2.91918 10.9834
105 1 11.8296 0.0101488 10.1355
119 1 10.0568 4.12402 1.1601
117 1 11.2913 4.10232 1.87838
157 1 11.3328 4.9189 4.17809
124 1 9.18021 3.70881 5.01453
146 1 11.3855 3.97031 3.30822
138 1 10.2186 5.74187 3.89366
161 1 10.2777 4.94223 8.31128
155 1 9.72347 4.77316 7.05922
133 1 11.4486 4.36918 8.8939
122 1 11.7791 3.7662 6.22739
125 1 10.4313 4.01175 6.05778
163 1 9.44619 5.61201 9.18789
113 1 9.86272 3.82653 11.855
132 1 11.2015 3.12199 9.46298
143 1 9.41135 6.11047 2.82495
168 1 11.139 7.60473 0.563201
149 1 9.69535 7.6531 5.41856
152 1 10.827 7.13612 6.19421
159 1 9.168 7.09184 8.9772
158 1 11.2905 7.02504 10.2119
164 1 10.4181 7.84684 9.49228
79 1 11.2299 6.74242 11.5198
172 1 10.0074 10.0659 4.56232
173 1 11.0291 10.7553 5.07982
175 1 9.42791 9.05859 5.30838
179 1 9.28849 10.6904 3.58403
182 1 11.2861 9.8532 8.11419
186 1 11.4828 11.032 7.29613
176 1 11.9937 10.5963 6.03074
187 1 10.2157 9.88624 10.5578
190 1 10.9942 11.1135 10.7664
183 1 10.5117 9.3033 9.2034
191 1 9.03 9.33326 11.045
ITEM: TIMESTEP
2000
ITEM: NUMBER OF ATOMS
191
ITEM: BOX BOUNDS pp pp pp
-1.1163598761993500e-01 1.2111635987620000e+01
-1.1163598761993500e-01 1.2111635987620000e+01
-1.1163598761993500e-01 1.2111635987620000e+01
ITEM: ATOMS id type x y z
5 1 2.89905 2.82893 2.32425
12 1 1.20196 0.690514 4.84829
118 1 0.133265 0.413976 3.93625
13 1 1.1978 1.39199 6.1292
31 1 2.76106 1.01193 8.69033
32 1 1.26541 0.7588 8.58497
11 1 0.556082 0.931451 7.30657
17 1 2.52818 2.06532 6.23167
28 1 0.179233 0.967162 9.63541
38 1 2.61975 2.03074 10.7146
30 1 1.36527 2.75163 11.0242
29 1 0.22924 2.32121 10.2652
7 1 0.300411 4.87285 1.34423
6 1 1.06746 3.92775 0.770138
45 1 0.914519 5.96263 1.92926
4 1 1.72944 2.97614 1.49151
53 1 0.324706 6.0661 4.39297
14 1 2.21977 3.43599 6.63041
22 1 0.882997 3.811 7.06116
63 1 0.740783 4.52091 8.33713
34 1 1.3693 4.03669 11.5565
64 1 1.78285 5.07673 10.6386
66 1 1.9185 4.66936 9.17563
39 1 0.281336 8.71678 0.905152
43 1 2.38853 8.06447 0.753713
42 1 1.31871 8.13277 1.66282
54 1 2.48731 6.60642 5.51445
50 1 2.27355 8.72944 3.80578
52 1 0.894832 6.33724 5.59343
60 1 2.65102 7.96637 4.99188
41 1 1.5926 7.80243 2.90833
40 1 0.916193 6.58208 3.20288
108 1 1.45208 8.53787 8.50364
67 1 1.79188 7.16147 8.12953
71 1 0.559021 6.41862 7.87853
59 1 -0.0597816 6.62721 6.64741
77 1 2.11769 6.32167 11.3434
76 1 1.9047 7.70157 11.6257
75 1 1.30448 8.81605 11.0374
89 1 1.53969 10.701 0.709131
84 1 1.4501 10.4861 2.14092
80 1 0.805983 9.61638 -0.112432
83 1 2.29496 10.0061 3.21222
21 1 1.91468 11.6457 5.11355
96 1 1.12917 10.5814 5.53168
176 1 -0.207592 10.673 5.95205
109 1 0.215668 8.98647 8.11492
107 1 1.91044 9.14921 9.77208
3 1 5.20281 1.25104 1.98998
1 1 3.91547 1.79229 2.15822
16 1 4.18832 0.0125373 5.49065
18 1 3.82332 1.42243 5.94557
26 1 5.81927 0.801089 8.9748
24 1 5.62317 2.34814 8.73383
10 1 4.95283 2.13001 6.33796
9 1 5.67589 2.85284 7.28742
25 1 3.17307 2.16632 9.45314
36 1 2.9107 0.883863 11.6794
48 1 4.16795 4.94094 0.665035
8 1 3.43692 4.01085 2.72395
46 1 4.34681 4.79317 2.03169
44 1 5.47743 5.30494 2.66307
56 1 5.0704 5.7214 5.67677
51 1 3.53933 5.72865 5.92693
70 1 3.14956 5.1777 8.41949
57 1 3.08676 4.66866 6.93657
78 1 4.90322 4.62832 11.6273
68 1 4.25739 4.48052 9.20349
69 1 4.83072 5.23789 10.3327
37 1 5.66017 3.48679 11.6498
27 1 4.35712 2.97347 9.22325
47 1 4.99312 7.78063 2.34444
82 1 4.63447 8.7132 1.3228
90 1 3.40616 9.12054 0.816191
92 1 5.11143 8.3516 3.71415
55 1 5.87423 7.19978 5.51545
73 1 4.06257 7.70694 8.57563
62 1 5.39698 7.38997 8.04287
61 1 5.69861 8.12687 6.6793
65 1 3.09668 6.68024 8.3989
72 1 5.43483 6.46244 10.1466
81 1 5.51412 7.58673 10.9089
102 1 4.25033 8.95777 9.16367
88 1 3.53609 11.4148 1.92667
85 1 3.13512 10.7272 0.434381
91 1 5.79853 9.58126 1.03312
97 1 5.56964 10.3044 5.26968
94 1 5.57494 11.7 5.39998
20 1 3.23129 11.6757 4.59238
87 1 3.34743 11.0405 3.32961
95 1 5.77948 9.55496 4.08656
93 1 5.44975 9.71043 6.53675
100 1 5.32164 10.7584 7.82969
101 1 5.44681 9.78611 8.80706
106 1 4.83158 12.1895 8.31743
33 1 3.54187 12.131 9.0465
99 1 3.23108 9.80463 9.91122
98 1 3.25301 11.1402 10.12
103 1 3.23167 11.6912 11.4498
86 1 5.91533 9.82791 11.9137
114 1 8.68207 1.88964 0.38855
2 1 6.32513 1.28872 2.72767
15 1 6.88598 0.163343 5.03842
19 1 6.89964 0.683112 3.7072
121 1 8.16206 -0.0239696 5.71364
129 1 8.1798 0.407257 9.54409
130 1 8.14278 2.52941 11.4282
137 1 6.75772 0.433114 10.0424
134 1 6.68597 2.73507 11.0046
147 1 7.80933 4.63151 2.28451
139 1 9.08957 5.29788 1.97526
141 1 6.64071 4.55724 3.29253
150 1 8.24601 3.69067 4.95222
156 1 6.85694 4.16759 4.6079
58 1 5.86392 4.45507 5.73829
151 1 8.52099 5.23305 6.90084
166 1 7.47103 4.48155 7.65067
23 1 6.27223 4.02197 7.04926
167 1 7.53578 4.04911 9.03101
165 1 8.71667 4.41094 9.73773
35 1 6.67395 3.00867 9.51932
171 1 7.99834 8.47635 1.48258
140 1 7.68324 7.635 0.246643
142 1 8.29879 7.50823 2.6411
145 1 6.68815 6.57682 0.750328
49 1 5.9716 6.65251 2.19978
144 1 7.09647 7.04573 3.30211
148 1 7.09676 6.98428 4.81157
154 1 8.42561 6.98403 5.44404
153 1 8.40708 6.60237 6.78425
162 1 8.67595 7.55769 7.74549
184 1 8.50888 8.97202 7.70403
159 1 9.0909 7.01706 9.10376
74 1 6.33657 6.7584 9.12219
188 1 7.81864 8.30113 11.1531
160 1 7.64666 7.22779 9.78625
110 1 6.46842 9.01253 10.8127
169 1 6.96002 9.48614 1.76044
174 1 8.04434 10.7363 3.52703
170 1 6.91925 9.91025 3.21175
177 1 8.94628 9.62826 6.40554
178 1 8.84013 11.039 6.40238
180 1 7.82965 10.0111 8.75329
181 1 8.34995 11.3033 8.87533
104 1 6.61505 9.6667 9.47203
191 1 8.92283 9.345 10.897
115 1 10.7229 1.36156 2.15903
112 1 9.74456 1.36532 1.01171
116 1 12.034 0.891701 2.51643
111 1 10.1402 2.03769 3.34927
120 1 10.0464 1.06851 4.3943
123 1 8.99721 1.03628 5.3194
126 1 11.0814 0.134926 4.47582
127 1 10.1694 0.631431 7.85755
189 1 11.5086 0.225387 7.4317
131 1 9.35333 1.34152 9.05637
135 1 10.0235 2.46244 9.71262
119 1 10.0128 4.65342 1.00641
117 1 11.2765 4.53334 1.7879
157 1 11.2651 5.63667 3.83825
124 1 9.75805 3.66973 4.99947
128 1 10.5565 3.26621 3.85641
146 1 11.1563 4.33354 3.23511
161 1 10.4578 5.09818 8.47945
155 1 9.88389 4.86577 7.14745
122 1 11.9476 3.74941 6.29247
125 1 10.6107 4.06126 6.18718
133 1 11.6008 4.39852 8.96298
163 1 9.41567 5.42158 9.25391
136 1 9.21625 3.31996 10.6711
113 1 9.71583 4.24499 11.9639
132 1 11.3251 3.00068 9.60779
143 1 9.29401 6.47844 2.81131
168 1 11.2921 7.97631 0.697934
149 1 9.76701 7.56224 5.13474
138 1 10.1636 6.59129 3.93192
152 1 10.9853 7.2567 6.19458
158 1 11.0442 7.52008 10.4983
164 1 10.3627 7.83264 9.3594
79 1 10.7186 7.50166 11.7724
172 1 10.2953 10.0763 4.45657
173 1 11.1717 11.0024 4.87181
179 1 9.36494 10.5987 3.64495
175 1 9.68685 8.99941 5.30757
182 1 11.3559 10.0001 8.1983
186 1 11.5235 11.0317 7.26706
185 1 9.28821 11.5958 7.69452
183 1 10.4461 9.26488 8.96531
187 1 10.0741 9.90828 10.2694
190 1 10.7849 11.1265 10.3919
105 1 11.6104 12.1183 10.1299
ITEM: TIMESTEP
3000
ITEM: NUMBER OF ATOMS
191
ITEM: BOX BOUNDS pp pp pp
-2.1904952154693050e-01 1.2219049521546999e+01
-2.1904952154693050e-01 1.2219049521546999e+01
-2.1904952154693050e-01 1.2219049521546999e+01
ITEM: ATOMS id type x y z
4 1 1.81331 2.59341 1.4375
12 1 0.861103 0.633308 4.70923
118 1 -0.310336 0.75449 3.72681
13 1 1.20415 1.41268 6.01617
31 1 2.63691 0.715392 8.62382
32 1 1.22313 0.813297 8.27559
11 1 0.245941 0.958521 7.0688
17 1 2.40564 2.18304 6.07199
28 1 0.348781 0.691406 9.40599
38 1 2.42016 1.79447 10.7394
30 1 1.10167 2.29259 10.9993
29 1 0.113383 2.06895 9.99242
7 1 0.29449 4.34894 1.39547
6 1 1.04361 3.39211 0.619619
45 1 1.23221 5.14439 2.1536
14 1 2.00505 3.77433 6.61957
22 1 0.631064 4.01769 6.97405
63 1 0.450547 4.79342 8.43361
34 1 1.13139 3.55281 11.6349
64 1 1.58543 4.69144 10.8097
66 1 1.74821 4.76009 9.30866
39 1 0.544353 7.98173 0.830249
42 1 1.81699 7.67281 1.52468
43 1 2.77401 7.72481 0.414784
41 1 1.62289 7.46838 2.89316
80 1 0.842667 9.10802 -0.0868335
54 1 2.36054 6.81234 5.72068
50 1 2.18898 8.53859 3.71648
52 1 0.955707 6.4471 5.46372
53 1 0.35847 6.01585 4.21117
40 1 1.27617 6.13794 3.12964
60 1 2.61258 8.12016 4.9693
108 1 1.55843 8.54939 8.98505
67 1 1.79187 7.13933 8.5688
71 1 0.701468 6.47328 7.84581
59 1 0.105367 6.79916 6.58468
75 1 1.49743 8.57091 11.2794
76 1 2.31897 7.35543 11.6173
77 1 1.66866 6.04627 11.3341
89 1 1.47786 9.97513 0.767804
84 1 0.966304 10.0926 2.13953
85 1 2.8447 10.1078 0.752067
83 1 1.86695 9.78144 3.23152
21 1 1.50218 11.8363 4.74191
96 1 1.11551 10.7829 5.53314
87 1 2.92007 10.9303 3.04195
109 1 0.564833 9.23339 8.41876
107 1 2.03754 9.20889 10.1917
3 1 5.19764 1.13793 1.97795
1 1 3.90494 1.3202 1.88674
5 1 3.03894 2.43706 2.06095
16 1 3.84228 0.139979 5.17166
18 1 3.69921 1.36437 5.8576
26 1 5.71651 0.753069 8.87468
24 1 5.40137 2.25839 8.82399
10 1 4.79685 2.09507 6.35531
9 1 5.65954 2.77257 7.27144
25 1 3.02734 1.88518 9.44422
27 1 4.11108 2.89323 9.15912
36 1 2.9901 0.750498 11.6619
37 1 5.4954 2.75301 11.684
48 1 4.50792 4.58228 0.408562
8 1 3.71825 3.65305 2.50065
46 1 4.57885 4.53823 1.90656
44 1 5.65963 5.42213 2.41087
58 1 5.99398 4.76059 5.75135
70 1 3.11117 5.19401 8.77562
57 1 2.9879 4.87611 6.95222
51 1 3.54007 5.81246 6.08431
78 1 4.82403 4.00235 11.6866
68 1 4.01429 4.24502 9.45105
69 1 4.95594 4.73609 10.4228
47 1 5.1474 8.04539 2.10894
82 1 4.85962 8.92234 1.01845
90 1 3.56174 8.97668 0.433271
92 1 5.04678 8.56781 3.37175
55 1 5.83304 7.32379 5.59014
56 1 5.00041 6.05842 5.7466
73 1 4.14425 7.70117 8.77978
62 1 5.48901 7.36698 8.22377
61 1 5.75514 8.15234 6.81413
65 1 3.10839 6.71124 8.75266
72 1 5.49703 6.09632 10.3459
81 1 4.95243 6.92166 11.2891
88 1 3.33117 11.1017 1.73193
91 1 5.95549 9.67127 0.76273
97 1 5.46591 10.2744 5.19506
94 1 5.18176 11.7729 5.18784
95 1 5.85589 9.66699 3.93788
20 1 2.771 11.8294 4.0971
93 1 5.6381 9.76743 6.56028
100 1 5.4839 10.5445 7.75159
101 1 5.52541 9.82469 8.95945
33 1 3.48846 11.9684 8.77081
106 1 4.87905 11.8555 8.2815
99 1 3.31553 9.86362 9.90378
98 1 3.35725 11.2832 9.9314
103 1 3.14373 11.979 11.1461
102 1 4.31512 9.05931 9.31555
114 1 8.75829 1.79251 0.166931
15 1 6.49178 0.135561 5.08938
19 1 6.49452 1.15456 4.12911
123 1 8.88631 0.812065 5.24957
2 1 6.02404 1.5222 2.85538
129 1 8.25602 0.103264 9.61639
130 1 7.93502 2.57698 11.6564
137 1 7.01795 0.665325 9.46942
134 1 6.77149 2.51951 11.0205
147 1 8.05864 4.83469 2.65251
139 1 9.17057 5.6491 1.96289
141 1 6.66815 4.75582 3.25505
150 1 8.0833 4.06631 5.09598
156 1 6.77075 4.48602 4.60159
151 1 8.47285 5.34297 7.22167
166 1 7.35325 4.57868 7.83855
23 1 6.40338 3.92424 6.83087
165 1 8.42981 4.58391 9.96819
167 1 7.34524 4.13845 9.20084
35 1 6.52131 3.12034 9.64223
171 1 8.15226 8.85328 1.5691
140 1 7.86483 8.0844 0.264704
142 1 8.35393 7.8159 2.63684
145 1 6.83349 6.93487 0.63281
49 1 6.08165 6.8787 2.05071
144 1 7.23788 7.35143 3.28456
148 1 7.22391 7.27952 4.72722
154 1 8.42066 7.22201 5.48939
153 1 8.29206 6.75315 6.86782
162 1 8.40517 7.80634 7.77446
188 1 7.95529 8.6437 11.197
160 1 7.5353 7.36049 10.065
74 1 6.33004 6.76667 9.43359
159 1 8.82783 7.23432 9.20862
169 1 6.91708 9.78063 1.80966
174 1 7.88152 11.0399 3.54165
170 1 6.84784 10.2433 3.11634
121 1 7.81983 12.2981 5.65438
177 1 8.75187 9.82521 6.37535
178 1 8.67326 11.2783 6.38855
180 1 7.90888 10.0635 8.74513
181 1 8.51112 11.4464 8.77345
185 1 9.19005 11.9625 7.54035
184 1 8.24908 9.18409 7.67414
104 1 6.78603 9.77732 9.53308
110 1 6.90984 9.63809 10.88
86 1 6.16017 10.2296 11.9349
115 1 10.5859 1.75852 2.1427
112 1 9.82056 1.62674 0.972834
116 1 11.9939 1.28719 2.37719
111 1 10.1359 2.23106 3.4248
120 1 9.96427 1.11727 4.36711
126 1 11.0707 0.168798 4.47887
127 1 10.1762 0.497214 7.95867
189 1 11.4948 0.188814 7.42339
135 1 10.1806 2.46815 9.85236
131 1 9.65872 1.19049 9.15142
119 1 10.1449 4.76232 1.08332
117 1 11.3593 4.50223 1.85018
113 1 9.74603 4.23252 -0.229173
146 1 11.0841 4.70056 3.22475
124 1 9.47881 3.95295 5.12519
128 1 10.2921 3.52592 3.96701
161 1 10.3063 5.03467 8.82602
155 1 9.77478 4.848 7.51857
122 1 11.6887 3.81035 6.44016
125 1 10.3789 4.32127 6.28941
133 1 11.5466 4.27992 9.10329
163 1 9.31156 5.57477 9.67836
136 1 9.11003 3.59736 11.0259
132 1 11.5098 2.95953 9.59812
143 1 9.43379 6.83794 2.6246
168 1 11.9211 7.02125 0.444934
149 1 9.99868 7.71686 5.14313
138 1 10.4129 6.95783 3.64788
157 1 11.4236 5.95926 3.81226
152 1 11.3188 7.41753 6.18277
158 1 11.1492 7.19327 10.2124
164 1 10.2985 7.83346 9.4303
79 1 11.2655 6.93512 11.6105
172 1 10.162 10.3286 4.60996
173 1 11.2052 11.2592 4.97632
179 1 9.21956 10.8167 3.64357
175 1 9.76554 9.27269 5.42394
176 1 12.2555 10.8502 5.98508
182 1 11.7953 9.8656 8.24242
186 1 11.8291 10.9865 7.35834
183 1 10.7236 9.29213 9.07266
187 1 10.4138 10.1063 10.3294
190 1 11.3154 11.072 10.6466
191 1 9.30293 9.40766 10.7969
105 1 12.2596 11.9922 10.1655
ITEM: TIMESTEP
4000
ITEM: NUMBER OF ATOMS
191
ITEM: BOX BOUNDS pp pp pp
-1.7320018246918689e-01 1.2173200182469182e+01
-1.7320018246918689e-01 1.2173200182469182e+01
-1.7320018246918689e-01 1.2173200182469182e+01
ITEM: ATOMS id type x y z
5 1 2.86892 2.7832 2.11173
4 1 1.66434 2.76652 1.33561
12 1 1.0306 0.800939 4.76746
118 1 -0.0931346 0.865852 3.80963
13 1 1.13456 1.48863 6.0566
11 1 0.414459 0.691962 7.12129
32 1 1.31822 0.902189 8.37613
31 1 2.74344 0.997073 8.67972
17 1 2.39809 2.25287 6.23271
28 1 0.517714 0.981209 9.5707
38 1 2.37443 1.93674 10.6569
30 1 1.20059 2.73927 10.6935
29 1 0.122035 2.3038 9.98832
36 1 2.72643 0.776624 11.401
105 1 0.0885739 -0.0992466 10.3472
7 1 0.071384 4.63121 1.35362
6 1 0.889344 3.74021 0.606609
45 1 0.897991 5.57075 2.03964
14 1 2.02236 3.55319 6.77738
22 1 0.580441 3.92845 6.98065
63 1 0.550352 4.802 8.36082
34 1 1.13904 3.92966 11.5462
64 1 1.47668 4.98676 10.7393
66 1 1.72918 4.65439 9.33184
39 1 0.220117 8.5657 0.970924
42 1 1.37098 7.81009 1.46598
43 1 2.45393 7.62189 0.590136
41 1 1.61242 7.59475 2.87759
54 1 2.52782 6.66524 5.6541
50 1 1.92783 8.59156 3.8694
52 1 0.959994 6.2649 5.57715
60 1 2.71954 7.98559 4.9795
40 1 1.13753 6.30337 3.11158
53 1 0.288229 6.11213 4.22601
108 1 1.25216 8.46188 8.84337
67 1 1.66184 7.23379 8.48021
71 1 0.596375 6.37676 7.88502
59 1 0.0826791 6.54212 6.61239
109 1 0.195515 9.00527 8.11604
75 1 1.33396 8.79931 11.1343
76 1 2.03625 7.54672 11.5988
77 1 1.85084 6.22344 11.167
89 1 1.62737 10.2186 0.825527
84 1 1.18296 10.3077 2.205
80 1 0.776414 9.51945 0.0104054
83 1 1.97165 10.0452 3.3714
21 1 1.78462 11.9624 4.83319
96 1 0.879748 10.9014 5.40351
103 1 2.9063 11.9666 11.0013
107 1 1.6762 9.32009 9.89589
3 1 4.90337 1.07389 2.24026
1 1 3.6925 1.63361 2.28489
16 1 4.1727 0.194135 5.11098
18 1 3.66322 1.44323 5.97419
26 1 5.93273 0.724181 8.94115
24 1 5.69742 2.4055 8.74645
10 1 4.91736 2.05734 6.37041
9 1 5.82049 2.73414 7.18161
25 1 3.20803 2.14775 9.41115
48 1 4.54522 5.11988 0.524511
8 1 3.57671 4.06163 2.4391
46 1 4.60601 4.82457 1.95231
44 1 5.70209 5.42652 2.67137
56 1 5.16838 5.91776 5.8526
70 1 3.10339 5.14907 8.67851
57 1 3.02325 4.71945 7.15325
51 1 3.57055 5.70499 6.05607
78 1 4.98915 4.46747 11.8209
68 1 4.12931 4.35186 9.33334
69 1 4.9473 4.92204 10.4163
72 1 6.03262 5.78972 10.1251
27 1 4.29813 2.96322 9.14423
47 1 4.88529 7.73192 2.80517
82 1 4.7594 8.33984 1.51223
90 1 3.48071 8.54081 0.877993
91 1 5.80587 9.06147 1.01468
92 1 4.7854 8.74798 3.81262
55 1 5.94695 7.14839 5.78304
49 1 5.73707 6.75209 3.02701
73 1 4.07841 7.79836 8.73778
62 1 5.35629 7.46667 8.22487
61 1 5.57155 8.08561 6.88541
65 1 3.03535 6.77977 8.75377
88 1 3.72882 10.6988 2.04406
85 1 3.00537 9.88524 0.990522
97 1 5.62289 10.4651 5.39636
94 1 5.37415 11.7643 5.36575
95 1 5.67704 9.81335 4.04738
20 1 3.12007 11.8331 4.40822
87 1 3.18443 10.7848 3.56325
93 1 5.46491 9.71455 6.67535
100 1 5.27474 10.5785 7.94699
33 1 3.57999 12.1193 8.78943
106 1 5.00196 12.0046 8.45971
99 1 2.9826 9.85213 9.73964
98 1 3.0648 11.2375 9.89312
102 1 4.0868 9.15662 9.31817
101 1 5.45173 9.69765 9.12038
114 1 8.94673 1.68248 0.0463716
2 1 6.10271 0.673957 2.51951
15 1 6.65813 0.108769 4.95412
19 1 6.74657 0.329676 3.62298
123 1 8.84428 0.748115 5.13793
129 1 8.45943 0.0566224 9.65236
130 1 8.30299 2.56728 11.4835
137 1 7.00437 0.427892 9.83749
134 1 6.87149 2.85224 10.9574
147 1 7.73476 4.64087 2.28577
139 1 8.89098 5.4057 2.02113
156 1 6.93244 4.47806 4.58118
150 1 8.21022 3.90457 4.99829
141 1 6.75328 4.61511 3.2078
58 1 6.01582 4.87694 5.59198
151 1 8.64277 5.13896 6.88928
166 1 7.54633 4.3592 7.43781
23 1 6.1833 3.97999 6.70691
167 1 7.60591 4.16924 8.94228
165 1 8.52235 4.72812 9.88079
35 1 6.80066 3.11324 9.60432
37 1 6.01378 3.46705 11.9647
171 1 8.02914 8.46171 1.747
140 1 8.19635 8.13938 0.174888
142 1 8.09961 7.48079 2.71627
144 1 6.91454 7.2502 3.53942
148 1 7.04959 7.24199 4.92182
154 1 8.37248 7.11654 5.39433
153 1 8.53202 6.64999 6.67159
162 1 8.87799 7.61298 7.62178
184 1 8.61273 9.00021 7.48795
159 1 8.97344 7.09104 9.03534
74 1 6.35678 6.67386 8.89817
81 1 6.723 6.22313 11.3933
160 1 7.57471 7.23531 9.34906
145 1 7.69407 6.85872 12.059
169 1 6.9062 9.19421 1.79621
174 1 7.81425 10.9432 3.25711
170 1 6.73958 9.97534 3.03039
121 1 8.03604 12.0958 5.66243
177 1 9.1023 9.81213 6.18806
178 1 8.72317 11.1629 6.45736
180 1 7.9903 9.70841 8.62334
181 1 8.61876 11.0915 8.90964
104 1 6.7764 9.47989 9.69992
110 1 7.14256 9.59069 11.0917
188 1 8.35282 9.32996 11.6095
86 1 6.06893 9.74687 12.1008
115 1 10.6315 1.77179 2.13876
112 1 9.89587 1.56747 0.981973
116 1 12.0181 1.40435 2.49124
111 1 10.0723 2.16636 3.41782
120 1 9.86432 0.970782 4.2939
126 1 11.0301 0.161734 4.14163
127 1 10.16 0.385199 7.90873
189 1 11.5486 0.0858872 7.34621
135 1 10.0452 2.49846 9.84982
131 1 9.52657 1.03239 9.22563
119 1 9.85911 4.77662 1.14724
117 1 11.0819 4.59836 1.8815
146 1 10.8831 4.56125 3.23931
124 1 9.59014 3.82449 5.18051
128 1 10.2665 3.44587 3.99229
157 1 11.1638 5.77928 3.94273
161 1 10.3695 5.03388 8.54454
155 1 9.9698 4.72932 7.2655
122 1 11.747 3.45772 6.51928
133 1 11.549 4.36149 8.95082
125 1 10.4019 3.80028 6.28979
163 1 9.39251 5.69115 9.31696
136 1 9.309 3.4493 10.9774
113 1 9.85983 4.25049 12.0987
132 1 11.4177 3.0994 9.58896
168 1 11.3467 7.96124 0.770089
143 1 9.17674 6.56795 2.70745
149 1 9.83039 7.69815 5.01663
138 1 10.2303 6.79827 3.69327
152 1 11.0791 7.27964 5.98233
158 1 10.6263 7.55849 10.6667
164 1 10.0464 8.16032 9.59592
79 1 10.9661 7.42794 11.9446
172 1 10.1586 10.2386 3.99788
173 1 11.0425 11.1566 4.57573
179 1 9.15357 10.6322 3.09553
175 1 9.56601 9.21522 5.04442
176 1 11.8225 10.8555 5.71509
182 1 11.3443 9.83721 7.92611
186 1 11.5088 10.983 7.04711
185 1 9.18539 11.6385 7.68652
187 1 10.5629 10.3517 10.3382
190 1 11.2667 11.5532 10.5092
191 1 9.6284 10.0733 11.3069
183 1 10.4902 9.53232 9.18581
ITEM: TIMESTEP
5000
ITEM: NUMBER OF ATOMS
191
ITEM: BOX BOUNDS pp pp pp
-9.9988301276104627e-02 1.2099988301276136e+01
-9.9988301276104627e-02 1.2099988301276136e+01
-9.9988301276104627e-02 1.2099988301276136e+01
ITEM: ATOMS id type x y z
4 1 1.8901 2.71278 1.43137
12 1 1.08234 0.680483 4.87649
118 1 0.0182894 0.688964 3.85894
11 1 0.645883 0.674618 7.24726
32 1 1.38813 0.764449 8.40063
31 1 2.80738 0.83202 8.51886
17 1 2.42184 2.29198 6.09532
13 1 1.27226 1.38548 6.13246
28 1 0.471969 0.881539 9.59242
38 1 2.50396 1.88801 10.5907
30 1 1.33032 2.64169 10.7617
29 1 0.250604 2.23576 9.88522
36 1 2.90973 0.735322 11.3027
7 1 0.458845 4.63178 1.26652
6 1 1.17867 3.59844 0.632214
45 1 1.42972 5.44351 2.03299
14 1 2.21801 3.66661 6.57146
22 1 0.892427 4.0632 7.02684
63 1 0.58942 4.77332 8.34676
34 1 1.37892 3.85502 11.4485
64 1 1.66627 4.94211 10.6643
66 1 1.70876 4.84843 9.25697
39 1 0.321739 8.41125 0.799175
42 1 1.51616 7.97697 1.5387
43 1 2.64991 7.84467 0.686555
41 1 1.56863 7.66764 2.85755
54 1 2.45411 6.72319 5.48748
50 1 2.20414 8.49788 3.71198
52 1 0.838263 6.4369 5.48577
60 1 2.64318 8.00578 5.02956
40 1 1.19849 6.29137 3.14227
53 1 0.452471 5.91325 4.21241
108 1 1.48156 8.60573 8.63891
67 1 1.72373 7.23908 8.39307
71 1 0.616251 6.44434 7.83293
59 1 0.0711556 6.78284 6.55847
75 1 1.51165 8.85601 11.0623
76 1 2.1258 7.55781 11.4949
77 1 2.04526 6.21245 11.1512
89 1 1.3765 10.3213 0.958389
84 1 0.965214 10.3798 2.43903
80 1 0.723968 9.44894 -0.0408753
83 1 2.13371 9.78962 3.23898
21 1 1.7676 11.6189 5.0261
96 1 0.980143 10.5064 5.54704
109 1 0.452446 9.16882 7.85293
107 1 2.02252 9.18408 9.80828
105 1 0.303531 11.9146 10.309
3 1 5.20414 1.25729 1.83844
1 1 3.84013 1.32527 1.74438
5 1 3.11617 2.49642 2.04541
16 1 4.09753 0.160104 5.177
18 1 3.77143 1.4046 5.79526
9 1 5.67305 2.85145 7.09529
24 1 5.59386 2.31197 8.68317
10 1 4.71258 2.30646 6.19632
26 1 5.85384 0.795942 8.57124
27 1 4.21363 2.84719 9.13414
25 1 3.18247 1.96912 9.3243
48 1 4.27006 4.77978 0.764696
44 1 5.52493 5.29984 2.75436
46 1 4.41764 4.75596 2.11099
8 1 3.76734 3.62117 2.67227
58 1 5.99547 4.84329 5.59951
56 1 5.00616 6.02358 5.88385
57 1 3.04571 4.73388 6.92452
70 1 3.17068 5.22701 8.42279
51 1 3.51035 5.83058 6.04031
78 1 4.59673 4.06184 11.7492
68 1 4.20222 4.24405 9.28159
69 1 4.65905 4.78903 10.5183
37 1 5.77324 3.192 11.8642
72 1 5.54815 6.09156 10.5265
47 1 4.8359 7.8737 2.75912
82 1 4.63649 8.6418 1.53516
90 1 3.4764 8.93944 0.88894
92 1 4.66859 8.71103 3.86243
55 1 5.91199 7.28137 5.93352
49 1 5.72257 6.73733 2.96213
73 1 4.14972 7.63907 8.5403
62 1 5.56705 7.35446 8.3354
61 1 5.75036 8.1545 7.03523
65 1 3.03665 6.75434 8.52489
102 1 4.29054 9.00304 9.19575
88 1 3.60145 11.1033 1.84353
91 1 5.80415 9.23599 1.08023
85 1 2.90015 10.2552 0.940907
97 1 5.59366 10.3682 5.47983
94 1 5.43206 11.8251 5.36346
20 1 3.11093 11.6762 4.41797
87 1 3.14771 10.9497 3.19291
95 1 5.6371 9.73168 4.26209
93 1 5.49469 9.6634 6.7044
100 1 5.44714 10.6 7.80074
106 1 5.00408 11.9159 8.13484
33 1 3.66969 11.9488 8.52978
101 1 5.60877 9.71641 8.97086
98 1 3.46564 11.1612 9.78535
99 1 3.20375 9.81088 9.61367
103 1 3.39641 11.66 11.0542
86 1 5.89413 9.96602 12.0375
2 1 6.27875 1.02752 2.61597
114 1 8.70886 1.881 0.457592
123 1 8.93121 1.32295 5.33973
19 1 6.83544 0.169584 3.62709
15 1 6.59514 0.316643 5.07019
121 1 7.85317 0.413075 5.70103
129 1 8.33706 0.364402 9.61066
130 1 8.21259 2.56079 11.492
137 1 6.81761 0.44904 9.65123
134 1 6.89337 2.77618 11.0417
35 1 6.75097 2.94701 9.66357
147 1 7.67831 4.53061 2.01847
139 1 8.99811 5.23339 1.81093
156 1 6.90845 4.44879 4.3956
150 1 8.19217 4.14836 4.76431
141 1 6.5879 4.51635 3.05634
151 1 8.35342 5.39629 7.15946
166 1 7.34885 4.51352 7.70513
23 1 6.30469 4.1409 6.7879
165 1 8.54561 4.34814 9.90862
167 1 7.52271 4.06735 9.07442
171 1 7.94856 8.32707 1.54565
140 1 8.06878 8.23902 0.109534
142 1 8.08276 7.25204 2.56331
144 1 6.99792 7.13727 3.47523
148 1 7.01947 7.24402 4.90407
154 1 8.3462 7.14059 5.56806
153 1 8.23363 6.84577 6.8848
162 1 8.40352 7.72468 7.90113
81 1 6.25675 6.40598 11.7427
160 1 7.63012 7.06671 10.0579
145 1 7.56715 7.08639 11.4954
74 1 6.25365 6.82035 9.51315
159 1 8.84575 7.17109 9.25679
169 1 6.89385 9.24923 1.9564
174 1 7.50236 11.0401 3.28147
170 1 6.66472 9.96181 3.23265
179 1 8.88161 10.8832 3.46935
177 1 8.54473 9.97774 6.3864
178 1 8.47257 11.4855 6.45379
180 1 8.06563 10.0786 8.81294
181 1 8.556 11.4001 8.77382
184 1 8.27974 9.16447 7.62628
104 1 6.81884 9.92703 9.71953
110 1 6.89474 9.78493 11.0859
188 1 8.15189 9.54515 11.5904
115 1 10.765 1.44655 2.22014
112 1 9.88289 1.40213 1.1038
116 1 11.9555 0.901249 2.51851
111 1 10.1757 2.00196 3.385
120 1 10.0556 1.13459 4.44034
126 1 11.1119 0.202197 4.59077
127 1 10.1898 0.536328 7.86174
189 1 11.5158 0.163877 7.46249
135 1 9.93927 2.45263 9.83816
131 1 9.47957 1.23481 9.34961
119 1 10.0862 4.71994 0.908701
117 1 11.3245 4.63511 1.65617
146 1 11.0298 4.38637 3.03963
124 1 9.62385 3.94655 4.91508
128 1 10.1601 3.44798 3.68695
157 1 11.3046 5.67131 3.88233
161 1 10.3233 5.05747 8.57992
155 1 9.81613 4.86513 7.2885
122 1 11.8881 3.88065 6.19334
125 1 10.3749 4.27846 6.12545
133 1 11.4994 4.35013 8.98039
163 1 9.39136 5.55399 9.44246
113 1 10.071 4.16187 11.8045
132 1 11.3779 2.95663 9.57962
136 1 9.33225 3.33096 10.8155
168 1 11.3674 7.7156 0.842719
143 1 9.13865 6.37848 2.64045
149 1 9.72767 7.70879 5.09721
138 1 10.216 6.66714 3.78443
152 1 10.8879 7.17015 6.27065
158 1 10.6939 7.27914 10.6015
164 1 10.0722 7.95341 9.52275
79 1 10.7491 7.1546 11.8798
172 1 9.86689 10.3246 4.37523
173 1 10.9397 11.0328 4.84695
176 1 11.8168 10.6463 5.80454
175 1 9.47126 9.26483 5.29902
182 1 11.4086 9.72692 8.00981
186 1 11.5429 10.9194 7.16067
185 1 9.20578 11.8044 7.60189
187 1 10.4948 10.2791 10.289
190 1 11.588 11.0465 10.6187
191 1 9.33695 10.0659 11.1593
183 1 10.6053 9.27448 9.22159
ITEM: TIMESTEP
6000
ITEM: NUMBER OF ATOMS
191
ITEM: BOX BOUNDS pp pp pp
-1.0168888541196765e-01 1.2101688885411972e+01
-1.0168888541196765e-01 1.2101688885411972e+01
-1.0168888541196765e-01 1.2101688885411972e+01
ITEM: ATOMS id type x y z
116 1 -0.176249 1.38707 2.48808
4 1 1.96771 2.75448 1.28984
12 1 1.14358 0.66373 4.90659
118 1 0.145614 0.849165 3.84646
11 1 0.557366 0.894323 7.218
32 1 1.27796 0.817457 8.42802
31 1 2.75297 0.888243 8.47966
13 1 1.34392 1.47645 6.11082
17 1 2.50575 2.23922 6.04745
28 1 0.360554 0.975126 9.63402
38 1 2.61132 1.90293 10.7503
30 1 1.37255 2.57404 10.8041
29 1 0.178274 2.34568 10.0735
36 1 2.85171 0.696823 11.498
7 1 0.295393 4.43774 1.52148
6 1 0.980044 3.52065 0.615693