ITEM: TIMESTEP
1000
ITEM: NUMBER OF ATOMS
191
ITEM: BOX BOUNDS pp pp pp
0.0000000000000000e+00 1.2000000000000000e+01
0.0000000000000000e+00 1.2000000000000000e+01
0.0000000000000000e+00 1.2000000000000000e+01
ITEM: ATOMS id type x y z
12 1 1.20509 0.848646 4.8824
1 1 2.45416 2.21262 3.44646
118 1 0.0568909 0.931156 4.21542
31 1 2.7963 1.20012 8.59879
32 1 1.33362 1.11411 8.47168
11 1 0.524598 1.20419 7.34151
17 1 2.71238 2.40746 6.16634
13 1 1.38231 1.67759 6.10224
28 1 0.600435 1.06936 9.68613
29 1 0.380463 2.49177 10.0643
30 1 1.54051 2.88833 10.6729
38 1 2.76966 2.1392 10.5977
4 1 2.18611 3.42645 1.49308
6 1 1.37529 4.1638 0.681185
7 1 0.316389 4.7799 1.23673
5 1 2.72351 3.38718 2.80547
53 1 0.358511 5.83537 4.1516
14 1 2.48962 3.77126 6.47623
22 1 1.04066 4.12647 6.92577
63 1 0.861504 4.89394 8.19573
34 1 1.60511 4.1806 11.3394
64 1 1.84804 5.17285 10.4568
66 1 1.97643 4.87993 9.13738
39 1 0.181589 8.50532 0.712513
43 1 2.65505 8.15867 0.868042
42 1 1.41328 7.99508 1.5577
45 1 0.410238 6.0196 1.6437
40 1 0.607622 6.50916 2.98891
41 1 1.37971 7.70322 2.91852
54 1 2.3679 6.52629 5.21292
50 1 2.14686 8.46843 3.69532
52 1 1.04645 6.21113 5.25484
60 1 2.43505 7.90596 4.88676
59 1 0.319578 6.54721 6.41356
67 1 1.82448 7.31926 8.10585
71 1 0.824954 6.39916 7.65354
108 1 1.50378 8.72625 8.5489
75 1 1.63839 8.73584 10.9
76 1 2.39605 7.75422 11.4558
77 1 2.36185 6.3648 11.1126
89 1 1.68557 10.4378 0.778156
84 1 1.26087 10.293 2.26055
96 1 1.39937 10.5244 5.80047
21 1 1.92503 11.6793 5.0829
83 1 1.97272 9.86486 3.45811
109 1 0.460584 9.13924 7.92927
107 1 1.96788 9.23301 9.68906
80 1 0.964113 9.47731 11.8748
3 1 3.46182 1.23958 3.5408
16 1 4.12741 0.164967 5.50129
2 1 4.94593 1.47411 3.18049
9 1 5.79569 2.82726 7.153
24 1 5.70492 2.43076 8.65892
26 1 5.83625 0.933983 8.58776
10 1 5.33926 2.06308 6.16372
18 1 3.95423 1.52412 6.0336
25 1 3.47206 2.22466 9.36298
36 1 3.1563 1.05003 11.3995
48 1 4.33373 4.65548 0.709691
44 1 5.99016 5.22315 2.44868
46 1 4.83482 4.57961 2.03733
8 1 3.91788 4.06314 2.96916
58 1 5.89245 4.77236 5.62939
56 1 5.05263 5.94244 5.47293
51 1 3.61934 5.79543 5.77172
70 1 3.40603 5.25056 8.37877
57 1 3.29911 4.88631 6.83742
78 1 5.12797 4.29346 11.5245
68 1 4.40579 4.42649 9.42396
69 1 5.059 5.21573 10.3426
27 1 4.47806 3.0505 9.22505
47 1 5.19546 7.94796 2.43487
82 1 4.90455 8.78538 1.39948
92 1 5.0144 8.61295 3.70179
55 1 5.95341 7.18716 5.53858
73 1 4.19161 7.74413 8.55678
62 1 5.53684 7.49362 7.95057
65 1 3.19209 6.8109 8.4114
61 1 5.63671 8.06901 6.60218
72 1 5.55993 6.5066 10.3029
81 1 5.54413 7.76087 11.0694
88 1 3.49987 11.0428 2.1632
85 1 3.16455 10.4098 1.00517
91 1 5.91697 9.71594 1.04399
90 1 3.67653 9.11918 1.0001
94 1 5.51007 11.7138 5.47563
97 1 5.54044 10.2859 5.25334
87 1 3.11333 10.7168 3.43176
20 1 3.18504 11.8843 4.2963
95 1 5.89847 9.73487 4.04418
93 1 5.64775 9.60237 6.45837
100 1 5.39615 10.4731 7.59658
101 1 5.51693 9.71445 8.84227
106 1 4.93343 11.8978 7.96221
33 1 3.59975 11.9983 8.55921
98 1 3.50555 11.1841 9.68144
103 1 3.22428 11.7935 10.9441
99 1 3.27887 9.79207 9.59418
102 1 4.32834 9.07969 9.01661
114 1 8.60925 1.0636 0.341457
15 1 6.28686 1.03729 5.36838
19 1 6.14573 1.31933 3.9212
121 1 7.76238 0.614062 5.91285
128 1 8.88866 2.97665 3.70562
129 1 8.35478 0.18746 9.37563
130 1 8.26103 2.13424 11.4211
137 1 7.02759 0.504277 9.32774
134 1 6.96563 2.54662 10.8961
35 1 6.87822 2.8466 9.43909
147 1 8.12484 3.78741 2.81579
139 1 8.95702 4.71955 2.11283
141 1 6.86754 4.534 3.29409
150 1 8.14886 4.52859 5.47536
156 1 6.87198 4.6036 4.71775
151 1 8.27125 5.07366 6.80782
166 1 7.22697 4.60737 7.64401
23 1 6.11789 4.13615 6.99852
167 1 7.57641 4.01855 8.90824
165 1 8.33637 4.89564 9.7276
37 1 6.09022 3.28999 11.648
49 1 6.32647 6.66491 2.15676
140 1 7.99375 7.68454 0.383597
142 1 8.58072 7.38481 2.5869
145 1 6.96274 6.67636 0.681379
171 1 8.11027 8.45739 1.63405
144 1 7.31434 7.04926 3.2988
148 1 7.18411 7.1601 4.73754
154 1 8.35935 7.1502 5.53352
153 1 8.1698 6.55922 6.73473
162 1 8.58165 7.49694 7.74916
184 1 8.14193 8.93666 7.51019
188 1 7.99517 8.26872 11.0671
74 1 6.48352 6.90777 9.14608
160 1 7.81743 7.2395 9.89896
169 1 7.09657 9.53003 1.87342
174 1 7.97704 10.9841 3.56656
170 1 6.93637 10.1165 3.21665
177 1 8.34338 9.55504 6.12299
178 1 8.10362 11.1346 6.34415
180 1 7.89147 9.70405 8.60484
181 1 8.60636 10.9521 8.71045
185 1 8.91145 11.4014 7.40967
104 1 6.73251 9.58153 9.41521
110 1 6.49943 9.08283 10.8292
86 1 6.07477 10.1283 11.7812
115 1 10.3233 1.23323 2.44296
116 1 11.6482 0.993539 2.82226
112 1 9.70433 1.22206 1.2498
111 1 9.4857 1.66562 3.53701
126 1 10.9251 0.207048 4.75638
120 1 9.76984 1.11383 4.82804
123 1 9.07273 1.35593 5.95414
127 1 9.85358 0.871564 7.35898
189 1 11.3665 0.497339 7.24559
131 1 9.26943 1.27343 8.8753
135 1 9.92736 2.45712 9.72437
136 1 9.31994 2.91918 10.9834
105 1 11.8296 0.0101488 10.1355
119 1 10.0568 4.12402 1.1601
117 1 11.2913 4.10232 1.87838
157 1 11.3328 4.9189 4.17809
124 1 9.18021 3.70881 5.01453
146 1 11.3855 3.97031 3.30822
138 1 10.2186 5.74187 3.89366
161 1 10.2777 4.94223 8.31128
155 1 9.72347 4.77316 7.05922
133 1 11.4486 4.36918 8.8939
122 1 11.7791 3.7662 6.22739
125 1 10.4313 4.01175 6.05778
163 1 9.44619 5.61201 9.18789
113 1 9.86272 3.82653 11.855
132 1 11.2015 3.12199 9.46298
143 1 9.41135 6.11047 2.82495
168 1 11.139 7.60473 0.563201
149 1 9.69535 7.6531 5.41856
152 1 10.827 7.13612 6.19421
159 1 9.168 7.09184 8.9772
158 1 11.2905 7.02504 10.2119
164 1 10.4181 7.84684 9.49228
79 1 11.2299 6.74242 11.5198
172 1 10.0074 10.0659 4.56232
173 1 11.0291 10.7553 5.07982
175 1 9.42791 9.05859 5.30838
179 1 9.28849 10.6904 3.58403
182 1 11.2861 9.8532 8.11419
186 1 11.4828 11.032 7.29613
176 1 11.9937 10.5963 6.03074
187 1 10.2157 9.88624 10.5578
190 1 10.9942 11.1135 10.7664
183 1 10.5117 9.3033 9.2034
191 1 9.03 9.33326 11.045
ITEM: TIMESTEP
2000
ITEM: NUMBER OF ATOMS
191
ITEM: BOX BOUNDS pp pp pp
-1.1238234082144119e-01 1.2112382340821462e+01
-1.1238234082144119e-01 1.2112382340821462e+01
-1.1238234082144119e-01 1.2112382340821462e+01
ITEM: ATOMS id type x y z
4 1 1.75607 2.8523 1.38806
5 1 2.83963 2.69078 2.25691
12 1 1.19559 0.68459 4.78182
118 1 0.229567 0.47156 3.83469
31 1 2.733 0.880276 8.64357
32 1 1.22048 0.691794 8.61098
11 1 0.526197 0.87112 7.34921
17 1 2.43782 2.17963 6.22595
13 1 1.27486 1.36191 6.15857
28 1 0.20795 0.964643 9.68237
38 1 2.64565 1.96391 10.7895
30 1 1.50545 2.67017 10.96
29 1 0.318675 2.34035 10.1338
7 1 0.440714 4.74654 1.34424
6 1 1.05828 3.76336 0.654249
45 1 1.14124 5.82484 2.04413
14 1 2.16431 3.57729 6.63005
22 1 0.879205 3.96641 7.05343
63 1 0.690163 4.70886 8.26859
34 1 1.40806 3.93215 11.5461
64 1 1.83281 5.12656 10.5747
66 1 1.84942 4.80735 9.18584
39 1 0.220417 8.69422 0.97658
43 1 2.4419 8.07112 0.648058
42 1 1.29736 8.11074 1.65576
54 1 2.39947 6.65663 5.62833
50 1 2.08466 8.6778 3.8789
52 1 0.959616 6.35354 5.62771
40 1 0.964778 6.5601 3.25279
60 1 2.55682 7.95377 5.14452
53 1 0.284799 6.09632 4.36078
41 1 1.63769 7.79214 2.91224
108 1 1.29976 8.49768 8.65755
67 1 1.62775 7.17542 8.20114
71 1 0.533196 6.24267 7.87561
59 1 -0.164993 6.63783 6.69129
77 1 1.87261 6.27133 11.2157
76 1 1.89127 7.59911 11.5467
75 1 1.20025 8.90493 10.9898
89 1 1.61243 10.5991 0.671084
84 1 1.40696 10.471 2.17336
80 1 0.748502 9.66523 -0.043332
83 1 2.27907 9.98758 3.35311
21 1 1.98 11.7072 5.08869
96 1 1.24304 10.6005 5.55121
176 1 -0.15745 10.6268 5.88662
109 1 0.238054 9.07613 8.0501
107 1 1.75407 9.14091 9.72199
3 1 5.15419 1.24618 1.94224
1 1 3.84757 1.73543 2.24601
16 1 4.22378 0.0805155 5.46184
18 1 3.91275 1.34181 6.00468
10 1 4.97712 2.09818 6.47424
24 1 5.57088 2.72237 8.69288
25 1 3.41084 2.07134 9.3175
36 1 2.94822 0.844208 11.678
26 1 5.80168 0.130575 9.09585
48 1 4.12319 4.88719 0.682436
44 1 5.59208 5.29192 2.64783
46 1 4.39859 4.7512 2.09657
8 1 3.35564 3.91738 2.72917
56 1 5.07599 5.74566 5.57618
51 1 3.58251 5.82519 5.92091
70 1 3.06027 5.19698 8.40716
57 1 3.23916 4.75891 6.90456
9 1 5.73454 2.86902 7.28514
78 1 4.83663 4.64844 11.6375
68 1 4.14737 4.56557 9.35224
69 1 4.83157 5.27044 10.4489
37 1 5.66351 3.42163 11.6119
27 1 4.33825 3.14312 9.26341
47 1 5.0862 7.75636 2.31119
82 1 4.68109 8.69108 1.27363
90 1 3.40848 9.15632 0.765472
92 1 5.00567 8.31264 3.65653
73 1 4.12527 7.67723 8.54779
62 1 5.52046 7.48549 8.139
61 1 5.72 8.0708 6.81576
65 1 3.08808 6.75835 8.39684
102 1 4.2477 8.9628 9.20833
72 1 5.433 6.57868 10.1275
81 1 5.54361 7.69314 10.9757
88 1 3.49945 11.4775 1.92113
85 1 3.15116 10.7867 0.506668
91 1 5.73285 9.58981 1.03744
87 1 3.23068 10.998 3.39628
94 1 5.50702 11.8029 5.32765
20 1 3.24386 11.5892 4.63213
97 1 5.54832 10.2731 5.28682
95 1 5.68214 9.63478 4.00061
93 1 5.42553 9.66346 6.54488
100 1 5.2892 10.5376 7.66919
101 1 5.48133 9.64442 8.85813
33 1 3.42382 11.8698 8.96936
106 1 4.75038 11.8251 8.30913
98 1 3.17026 11.0101 10.1531
99 1 3.10818 9.64339 9.8871
103 1 3.27354 11.7034 11.4888
86 1 5.9453 9.97134 11.8915
114 1 8.65037 1.8939 0.398464
2 1 6.3447 1.20291 2.71572
15 1 6.87018 0.129399 5.03487
19 1 6.99454 0.616419 3.71997
121 1 8.09942 0.101637 5.77067
129 1 8.17923 0.368079 9.52963
130 1 8.11876 2.57678 11.4845
137 1 6.84151 0.469519 9.93596
134 1 6.76347 2.74806 11.0193
147 1 7.90869 4.56048 2.3744
141 1 6.63677 4.55253 3.28681
150 1 8.19998 3.65277 4.96452
156 1 6.88526 4.18501 4.68729
58 1 5.89696 4.50174 5.70466
151 1 8.58875 5.25074 6.96227
166 1 7.5226 4.60463 7.73792
23 1 6.32073 4.10779 6.96448
165 1 8.69073 4.51113 9.85796
35 1 6.71272 3.16758 9.57259
167 1 7.62944 4.14287 9.09839
171 1 7.87685 8.43476 1.52421
140 1 7.53823 7.75319 0.310116
142 1 8.31529 7.55102 2.68502
145 1 6.7734 6.61205 0.823883
49 1 6.07389 6.51907 2.22035
144 1 7.18419 7.03467 3.35113
148 1 7.07305 6.84489 4.76156
154 1 8.37423 7.03758 5.44764
55 1 5.85056 6.96231 5.42819
153 1 8.39838 6.67281 6.80452
162 1 8.54062 7.63573 7.7234
184 1 8.41891 9.02182 7.57119
159 1 8.94495 7.00486 9.07317
188 1 7.82976 8.38939 11.1749
160 1 7.61351 7.2956 9.73351
74 1 6.38093 6.95314 9.10847
110 1 6.49343 9.05992 10.8791
169 1 6.90099 9.41118 1.81092
174 1 8.1124 10.7148 3.37116
170 1 6.88747 10.0175 3.17779
177 1 8.97875 9.63403 6.36892
178 1 8.89959 11.0393 6.37571
180 1 7.88846 9.90287 8.61557
181 1 8.35137 11.305 8.66376
104 1 6.80235 9.52414 9.41532
191 1 8.98293 9.43878 10.8913
115 1 10.7697 1.48858 2.11683
112 1 9.70273 1.46779 1.04492
116 1 12.0827 0.8962 2.55631
111 1 10.1646 2.00361 3.35426
126 1 11.2217 0.147615 4.51458
120 1 10.0982 1.13191 4.43146
123 1 9.09565 1.06689 5.33228
127 1 10.1373 0.650008 7.85691
189 1 11.5322 0.170015 7.36218
135 1 9.94628 2.47512 9.92886
131 1 9.41657 1.41748 9.07094
119 1 10.0273 4.77748 1.07761
117 1 11.2636 4.49333 1.73513
139 1 9.0418 5.36998 1.9404
157 1 11.2449 5.6036 3.88934
124 1 9.66771 3.77694 4.95784
128 1 10.3813 3.35469 3.77478
146 1 11.1504 4.39295 3.20252
161 1 10.4454 5.07551 8.50163
155 1 9.95822 4.84648 7.14313
122 1 11.8823 3.77889 6.3566
125 1 10.5503 4.10947 6.11388
133 1 11.4836 4.35166 9.02071
163 1 9.42307 5.51164 9.30745
136 1 9.16861 3.44975 10.7897
113 1 9.71339 4.3504 11.9757
132 1 11.3508 3.04555 9.71127
143 1 9.34881 6.50165 2.73003
168 1 11.3513 7.95572 0.660406
149 1 9.75318 7.56553 5.21626
138 1 10.1829 6.66166 3.70239
152 1 10.9493 7.1431 6.21144
158 1 11.0675 7.40652 10.4956
164 1 10.3301 7.91535 9.33186
79 1 10.8557 7.39428 11.7941
172 1 10.373 10.0483 4.44223
173 1 11.2226 11.0284 4.89162
179 1 9.39907 10.5488 3.55164
175 1 9.59694 9.03802 5.33239
182 1 11.4302 9.90561 8.10229
186 1 11.6016 11.0181 7.22626
185 1 9.36421 11.6211 7.6407
187 1 10.133 9.93664 10.2283
190 1 10.634 11.251 10.4269
183 1 10.5052 9.27731 8.94378
105 1 11.5824 12.1107 10.0945
ITEM: TIMESTEP
3000
ITEM: NUMBER OF ATOMS
191
ITEM: BOX BOUNDS pp pp pp
-2.2497236473636956e-01 1.2224972364736400e+01
-2.2497236473636956e-01 1.2224972364736400e+01
-2.2497236473636956e-01 1.2224972364736400e+01
ITEM: ATOMS id type x y z
12 1 1.07133 0.386307 4.90037
118 1 -0.115995 0.477844 3.98817
31 1 2.84901 0.8181 8.94443
32 1 1.36935 0.580386 8.64696
11 1 0.719337 0.637551 7.41735
13 1 1.29849 1.1563 6.16289
17 1 2.54058 2.12751 6.33987
28 1 0.443466 0.691334 9.82952
38 1 2.52219 1.91588 11.0748
30 1 1.23785 2.58095 11.0458
29 1 0.187281 2.02214 10.1474
36 1 2.75219 0.667412 11.7058
7 1 -0.142661 4.89566 1.14454
6 1 0.972837 4.05177 0.570352
4 1 1.53715 3.28981 1.58088
5 1 2.61787 3.32082 2.42236
14 1 2.07439 3.60903 6.47218
63 1 0.41329 5.24104 8.85808
57 1 2.89218 4.8831 7.01188
22 1 0.478378 3.60669 6.24303
34 1 1.21602 3.93758 11.6328
64 1 1.82851 4.96218 10.9452
66 1 1.74665 5.00382 9.39604
39 1 0.420423 8.18995 0.479666
42 1 1.70993 8.16242 1.2906
41 1 1.48116 7.88352 2.61135
45 1 -0.0543555 6.2282 1.43609
40 1 0.716961 6.63058 2.72927
43 1 2.92463 8.26274 0.343733
54 1 2.27696 6.82241 5.26941
50 1 2.07527 8.73424 3.54478
52 1 0.870199 6.54376 5.24226
60 1 2.54399 8.01787 4.62722
53 1 0.182571 6.26477 3.9494
108 1 1.30048 8.59489 8.52975
67 1 1.61917 7.23579 8.29293
71 1 0.470319 6.34376 7.91841
59 1 -0.0618734 6.47001 6.42907
109 1 0.194199 8.93315 7.8595
75 1 1.58944 8.71692 11.0075
76 1 2.55906 7.65707 11.6287
77 1 2.54563 6.17871 11.4556
107 1 1.89058 9.08054 9.75762
89 1 0.981281 10.5636 0.466079
84 1 1.4387 10.6316 1.74797
96 1 1.12455 10.6152 5.48731
21 1 1.889 11.7133 4.88814
83 1 2.2399 10.0965 2.91895
80 1 0.759241 9.43331 12.0445
3 1 4.53289 1.63498 2.24049
1 1 3.33197 2.07422 2.55673
2 1 5.75751 1.42827 2.773
16 1 4.21926 -0.0780509 5.35507
18 1 3.97113 1.14375 5.97691
10 1 4.99493 1.98515 6.31145
24 1 5.41156 2.71104 8.68838
26 1 5.87259 0.187587 8.82987
9 1 5.61858 2.80714 7.29578
25 1 3.16411 2.00177 9.5013
37 1 5.64406 2.81791 11.5174
48 1 4.30914 4.43308 0.40892
44 1 5.54929 5.54736 2.12604
46 1 4.33773 4.88887 1.77082
8 1 3.31153 4.46966 2.63443
58 1 5.84088 4.83294 5.60869
56 1 4.83246 5.93328 5.76689
51 1 3.28104 5.81819 5.92098
70 1 3.01339 5.26128 8.551
78 1 4.92365 4.0794 11.5724
68 1 4.10733 4.57341 9.26011
69 1 4.81463 5.10572 10.394
27 1 4.1477 3.01768 9.20955
47 1 5.30829 8.04041 2.1104
49 1 5.91874 6.79823 1.57011
82 1 4.96087 9.01937 1.07251
92 1 5.98979 8.26039 3.46474
55 1 5.79708 7.20733 5.87802
73 1 4.20898 7.6841 8.76649
62 1 5.5546 7.28432 8.31002
61 1 5.74091 8.13055 7.01953
65 1 3.02928 6.8034 8.65497
72 1 5.75341 6.06407 10.4631
81 1 5.95346 6.63575 11.6278
102 1 4.21037 8.95181 9.41412
88 1 3.7914 11.4215 1.70983
85 1 3.54069 10.8493 0.259142
90 1 3.77643 9.36854 0.405555
97 1 5.64804 10.324 5.32003
94 1 5.37006 11.6305 5.49256
20 1 3.22699 11.7367 4.49477
87 1 3.3242 11.1052 3.06578
95 1 5.96035 9.83266 3.9985
93 1 5.59461 9.49826 6.68842
100 1 5.01015 10.5513 7.79582
106 1 4.79121 11.8485 8.39402
101 1 5.30281 9.69177 8.91282
98 1 3.13498 11.2822 10.1708
99 1 3.16023 9.73787 9.84431
103 1 3.15077 11.7686 11.613
33 1 3.59482 12.116 9.07262
114 1 8.69398 1.75083 0.284347
123 1 8.69582 0.79802 5.08095
19 1 6.36806 0.81094 3.85525
15 1 6.52725 -0.0210855 5.14848
121 1 7.86666 -0.187916 5.67914
129 1 8.17475 0.24841 9.46443
130 1 8.11068 2.38316 11.5669
134 1 6.83597 2.48302 10.8227
137 1 6.77888 0.519479 9.8047
147 1 7.89278 4.58891 2.54046
139 1 9.01273 5.25218 2.08716
156 1 6.74952 4.65051 4.5924
150 1 8.17145 4.18582 4.94263
141 1 6.57372 4.87639 3.12784
151 1 8.41632 5.25685 7.33254
166 1 7.31656 4.60448 7.70306
23 1 6.25847 4.01733 6.91369
167 1 7.52667 3.89521 8.96835
165 1 8.55634 4.40108 9.91292
35 1 6.62939 2.88574 9.48849
136 1 9.07822 3.36934 10.9487
171 1 8.05675 8.53469 1.5759
140 1 7.72183 7.93185 0.281489
142 1 8.11339 7.57216 2.67078
145 1 6.70704 6.96501 0.431884
144 1 7.01516 7.4644 3.64606
148 1 7.1222 7.32332 5.06351
154 1 8.46532 6.98175 5.65272
153 1 8.55825 6.65387 6.94508
162 1 8.71523 7.68141 7.88511
184 1 8.44926 9.05136 7.71973
188 1 8.18518 8.23175 11.3502
160 1 7.79491 7.2487 10.0863
74 1 6.52163 6.83588 9.37497
159 1 9.16084 7.11599 9.25497
169 1 7.16525 9.62198 1.9209
91 1 6.16619 9.88703 0.906053
174 1 8.23889 10.7591 3.49378
170 1 7.07697 10.1438 3.21375
181 1 8.5595 11.427 8.86171
178 1 8.50971 11.1288 6.52372
180 1 7.80611 10.0213 8.76381
177 1 8.64101 9.72486 6.44438
104 1 6.59391 9.9509 9.4971
110 1 6.61402 10.5931 10.798
86 1 6.43541 10.6586 12.1484
115 1 10.7746 1.36701 2.03199
112 1 9.88418 1.45749 0.91711
116 1 11.9209 0.761745 2.682
111 1 10.0428 1.72341 3.35447
120 1 9.90612 0.666741 4.28097
126 1 11.1873 0.0104567 4.65708
127 1 10.2463 0.297107 8.01108
189 1 11.7625 -0.171749 7.72522
135 1 10.1895 2.24009 10.0714
131 1 9.63527 1.07083 9.17297
132 1 11.4962 2.75223 9.869
119 1 9.88718 4.46919 1.17703
117 1 11.2679 4.22986 1.90672
113 1 9.65685 3.98339 -0.188987
157 1 11.2099 5.687 3.88658
124 1 9.43281 3.559 5.16226
128 1 10.1921 3.12016 4.10677
146 1 10.9929 4.16241 3.37051
122 1 11.7009 4.0852 6.00057
161 1 10.4522 4.88283 8.54988
155 1 9.65384 4.69027 7.27722
133 1 11.6734 4.26848 8.96482
125 1 10.245 4.11713 6.21169
163 1 9.4895 5.51405 9.50616
143 1 9.2045 6.63299 2.79862
168 1 12.1116 7.08389 0.450273
149 1 9.82765 7.64077 5.11925
138 1 10.1975 6.72399 3.87823
152 1 11.0769 7.23286 6.00286
158 1 11.1518 7.22712 10.4947
164 1 10.3585 7.88595 9.56905
79 1 11.3048 6.67581 11.7419
172 1 10.1674 10.1471 4.56839
173 1 11.1746 11.0464 4.95283
179 1 9.52743 10.5747 3.47479
175 1 9.54494 9.1867 5.50822
176 1 12.1331 10.7714 5.87342
182 1 11.4745 9.80749 7.96125
186 1 11.7619 10.9934 7.24303
185 1 9.25195 11.7079 7.65604
183 1 10.6253 9.32735 9.01252
187 1 10.4822 10.0983 10.2797
190 1 11.368 11.1495 10.632
105 1 12.2613 12.1502 10.7688
191 1 9.13601 9.36167 10.8545
ITEM: TIMESTEP
4000
ITEM: NUMBER OF ATOMS
191
ITEM: BOX BOUNDS pp pp pp
-1.4966529639545112e-01 1.2149665296395501e+01
-1.4966529639545112e-01 1.2149665296395501e+01
-1.4966529639545112e-01 1.2149665296395501e+01
ITEM: ATOMS id type x y z
12 1 1.15532 0.373624 5.00136
118 1 0.0337305 0.584696 4.25433
17 1 2.58294 1.92786 6.37153
32 1 1.22655 0.796152 8.573
11 1 0.448189 0.920484 7.34775
13 1 1.43382 1.18623 6.18374
31 1 2.69864 0.895816 8.69432
28 1 0.406203 0.928388 9.85873
38 1 2.66579 1.98465 10.7499
30 1 1.45743 2.83311 10.881
29 1 0.316051 2.34629 10.1662
36 1 2.86276 0.712531 11.5912
7 1 0.0588985 4.79596 1.04898
6 1 0.972518 3.96933 0.607649
4 1 1.67639 3.05906 1.57842
53 1 0.39769 5.99103 4.10378
14 1 2.28343 3.38382 6.34948
63 1 0.543456 5.19174 8.39532
22 1 0.859533 3.62478 6.10872
34 1 1.63972 4.01239 11.588
64 1 1.7059 5.18018 10.6937
66 1 1.65109 4.8748 9.24412
39 1 0.426855 8.18048 0.814739
42 1 1.69142 7.86951 1.40548
40 1 0.987423 6.33708 2.91733
41 1 1.71933 7.5689 2.78967
45 1 0.230433 6.05975 1.65542
43 1 2.7399 8.19605 0.44123
54 1 2.40046 6.65177 5.43696
50 1 2.11101 8.50782 3.62058
52 1 0.955828 6.26182 5.31685
60 1 2.81345 7.9926 4.85555
108 1 1.44102 8.51218 8.64593
67 1 1.86434 7.32421 8.07035
71 1 0.727309 6.45326 7.71295
59 1 0.0451142 6.71456 6.46839
109 1 0.267688 8.95793 8.13928
75 1 1.13535 8.79922 10.994
76 1 2.15645 7.89517 11.5168
77 1 2.14473 6.49093 11.1779
89 1 0.833211 10.5571 0.731229
84 1 1.13436 10.44 2.01311
80 1 0.493703 9.32604 -0.075833
96 1 1.08789 10.2873 5.87102
21 1 1.76418 11.4151 5.15103
83 1 1.94006 9.92241 3.18906
107 1 1.72093 9.19123 9.78704
3 1 5.12243 1.8174 2.11167
1 1 3.85714 1.96706 2.08452
10 1 5.05007 1.99914 6.41892
24 1 5.54885 2.7779 8.67782
26 1 5.77866 0.207631 8.59634
9 1 5.63357 2.87833 7.31703
18 1 3.74965 1.05446 6.12755
25 1 3.25741 1.96438 9.43782
48 1 4.20034 4.72938 0.367684
44 1 5.57113 5.47211 2.14786
46 1 4.35092 5.11593 1.67979
8 1 3.484 4.33969 2.60148
5 1 3.00853 3.10862 2.32336
56 1 4.95383 5.95348 5.66595
58 1 5.80747 4.75924 5.54324
51 1 3.46767 5.60147 5.96912
70 1 2.91699 5.19441 8.43095
57 1 3.0085 4.54565 6.90845
78 1 4.9736 4.19429 11.551
68 1 3.96154 4.39644 9.34321
69 1 4.86301 4.81066 10.3344
72 1 5.86677 5.92878 10.353
37 1 5.72953 3.03178 11.6342
27 1 4.1846 2.95329 9.09488
47 1 5.38928 7.95391 2.0992
49 1 5.95618 6.73652 1.52718
82 1 5.00109 8.96781 1.1224
55 1 5.85687 7.1612 5.87716
92 1 5.83067 8.35481 3.43908
73 1 4.1255 7.64422 8.85165
62 1 5.4675 7.43784 8.27462
61 1 5.64567 8.18111 6.8372
65 1 3.1 6.70387 8.39212
102 1 4.11474 8.9925 9.46496
88 1 3.33025 11.293 1.78591
85 1 3.41648 10.7136 0.463451
90 1 3.69082 9.27391 0.603688
97 1 5.61352 10.1596 5.24183
94 1 5.45955 11.5426 5.25924
20 1 3.09344 11.4672 4.50467
87 1 3.1233 10.8248 3.07225
95 1 5.92112 9.645 4.0053
16 1 4.11314 12.114 5.32794
93 1 5.30079 9.57012 6.57634
100 1 5.0188 10.3091 7.65515
106 1 4.66305 11.7323 8.09702
101 1 5.2968 9.74193 8.97368
33 1 3.49546 11.933 9.04151
98 1 3.22137 11.1454 10.2145
103 1 3.05011 11.6409 11.5743
99 1 2.98388 9.65694 9.94254
114 1 8.90035 1.76839 0.343992
2 1 6.21111 1.34382 2.84532
15 1 6.57208 0.0859402 5.23121
19 1 6.53257 0.932678 4.05439
123 1 8.78963 0.880908 5.11976
121 1 7.90687 -0.0842532 5.75045
129 1 8.12103 0.353817 9.27907
130 1 8.15476 2.4124 11.5919
134 1 6.89029 2.64142 10.9456
137 1 6.78116 0.62132 9.39265
147 1 8.00821 4.45195 2.27839
139 1 8.99688 5.55898 1.86961
141 1 6.72977 4.80105 2.89756
156 1 6.6488 4.48338 4.29896
150 1 7.88817 3.874 4.93614
151 1 8.5288 5.29535 7.05622
166 1 7.42285 4.44837 7.50035
23 1 6.21415 4.07438 6.79235
167 1 7.52545 3.92327 8.92993
165 1 8.5466 4.45129 9.83917
35 1 6.78622 2.89337 9.4124
171 1 7.98587 8.51474 1.59513
140 1 7.76497 7.8487 0.414087
145 1 6.77625 6.79266 0.427513
142 1 8.07715 7.6556 2.76286
144 1 7.02844 7.55805 3.83375
148 1 7.1375 7.21705 5.17179
154 1 8.41149 7.10812 5.61916
153 1 8.37915 6.67899 6.94078
162 1 8.65488 7.72247 7.88464
188 1 8.2249 8.33116 11.4117
160 1 7.9551 7.4969 10.1595
74 1 6.44508 7.04684 9.44216
81 1 6.4785 6.05052 11.6067
169 1 7.11205 9.76048 1.85643
91 1 6.00617 9.86964 1.02104
86 1 6.23106 10.7835 -0.073661
174 1 8.15483 10.9873 3.63198
170 1 7.00251 10.2537 3.23171
181 1 8.33224 11.3493 8.73547
178 1 8.69125 11.0647 6.34688
180 1 7.63236 10.0679 8.67324
177 1 8.74722 9.66608 6.26034
184 1 8.3356 9.13944 7.7007
104 1 6.62903 9.9838 9.58831
110 1 6.5566 10.6732 10.8474
191 1 9.00133 9.56977 11.2144
115 1 10.8471 1.46283 2.34583
112 1 9.79522 1.67884 1.39773
116 1 12.0618 0.790451 2.74336
111 1 10.3767 2.03171 3.58645
120 1 9.96084 1.02292 4.50834
126 1 11.102 0.0433657 4.78808
127 1 10.116 0.4383 7.85385
189 1 11.5049 0.039052 7.45319
131 1 9.43542 1.21074 9.00275
135 1 10.1389 2.52045 9.84032
119 1 9.96309 4.79489 1.05632
117 1 11.1759 4.37266 1.67241
146 1 10.9521 4.49335 3.15373
124 1 9.46544 3.73772 4.94062
128 1 10.1791 3.40683 3.78957
157 1 11.2678 5.74766 3.85623
161 1 10.333 5.09644 8.4184
155 1 9.82661 4.83037 7.0652
122 1 11.8393 3.70208 6.03793
125 1 10.3457 4.02426 6.05674
133 1 11.5414 4.49087 8.88909
163 1 9.41326 5.52305 9.34692
132 1 11.5254 3.26276 9.77923
113 1 9.7222 4.34037 12.0186
136 1 9.2696 3.40022 10.8813
143 1 9.16905 6.73477 2.76964
168 1 11.8933 7.06294 0.934109
149 1 9.74386 7.529 5.075
138 1 10.0932 6.76247 3.84564
152 1 11.0284 7.13161 6.0171
158 1 11.0574 7.10492 10.6728
164 1 10.409 7.80656 9.66008
159 1 9.19454 7.11897 9.29161
79 1 11.2581 6.89097 11.9803
172 1 10.1747 10.0183 4.47602
173 1 11.1187 10.9822 5.02152
175 1 9.67044 8.99942 5.40047
179 1 9.31716 10.436 3.54688
182 1 11.4741 9.78498 8.40539
186 1 11.6154 10.885 7.40984
185 1 9.21745 11.5948 7.65681
176 1 11.9426 10.4515 6.11776
187 1 10.2893 10.0744 10.5276
190 1 10.9292 11.2696 10.8428
183 1 10.7077 9.18803 9.416
105 1 11.9038 12.1134 10.4549
ITEM: TIMESTEP
5000
ITEM: NUMBER OF ATOMS
191
ITEM: BOX BOUNDS pp pp pp
-6.7371036545011156e-02 1.2067371036545051e+01
-6.7371036545011156e-02 1.2067371036545051e+01
-6.7371036545011156e-02 1.2067371036545051e+01
ITEM: ATOMS id type x y z
12 1 1.08661 0.432929 4.72154
118 1 0.0120858 0.426644 3.85948
17 1 2.39904 2.08758 5.9123
13 1 1.30726 1.1154 6.02137
31 1 2.77865 0.907411 8.70252
32 1 1.35886 0.694673 8.4903
11 1 0.541194 0.801593 7.29746
28 1 0.435549 0.951202 9.61732
38 1 2.66301 1.92055 10.7197
30 1 1.39758 2.65924 10.9499
29 1 0.33754 2.23085 10.1124
7 1 0.137887 4.78557 1.36234
6 1 1.11839 3.80868 0.89523
4 1 1.69531 2.83578 1.75794
63 1 0.532428 5.24743 8.61116
57 1 2.91851 4.44896 5.98798
14 1 1.98725 3.53908 6.14208
22 1 0.571964 3.75304 6.20656
34 1 1.45601 3.85741 11.6436
64 1 1.67234 4.9983 10.9144
66 1 1.70157 5.04409 9.41045
39 1 0.453097 8.30533 0.893156
42 1 1.79534 8.19643 1.46315
41 1 1.92794 7.62825 2.75503
40 1 1.07931 6.51473 2.73817
45 1 0.472859 6.05528 1.56189
43 1 2.75308 8.31442 0.503804
54 1 2.50166 6.661 5.23979
50 1 2.31573 8.61033 3.76741
52 1 1.10362 6.45545 5.20937
60 1 2.73949 8.12374 5.10026
53 1 0.399349 6.1378 4.00255
108 1 1.46422 8.64827 8.46761
67 1 1.7963 7.29715 7.97895
71 1 0.656777 6.39536 7.80555
59 1 0.20653 6.63896 6.42166
109 1 0.209736 9.04362 8.02969
75 1 1.40633 8.6379 10.8944
76 1 2.3012 7.67157 11.3886
77 1 2.06638 6.29005 11.363
89 1 1.10244 10.4684 0.657211
84 1 1.42118 10.4979 2.0417
96 1 1.27164 10.5605 5.92249
21 1 1.9088 11.4742 4.95825
83 1 2.31938 9.95624 3.11776
80 1 0.708399 9.30408 11.9451
107 1 1.85657 9.15837 9.65833
3 1 5.20513 1.73347 2.13467
1 1 3.98757 1.84085 1.72181
5 1 2.98455 2.84514 2.22166
16 1 4.18618 0.323839 5.08992
18 1 3.74123 1.63297 5.8288
10 1 4.81528 2.11593 6.62931
24 1 5.34313 2.82217 8.8303
25 1 3.13504 2.09133 9.36463
36 1 3.02848 0.836942 11.44
48 1 4.20547 4.77609 0.732633
44 1 5.50645 5.62501 2.52771
46 1 4.47125 4.7594 2.07055
8 1 3.53402 4.01166 2.91609
58 1 5.80494 4.81102 5.60549
51 1 3.54196 5.74258 5.60749
56 1 4.96515 5.93944 5.65524
9 1 5.51038 3.02041 7.42274
70 1 2.91538 5.38552 8.85903
78 1 4.83693 4.21502 11.5787
68 1 3.89629 4.60273 9.42703
69 1 4.83315 5.05683 10.3609
37 1 5.69079 3.10696 11.8
27 1 4.06155 3.14579 9.17641
72 1 5.9574 5.97056 10.3829
47 1 5.29827 8.07544 2.21759
49 1 5.82529 6.82593 1.81676
82 1 4.91823 9.03286 1.26748
55 1 5.77298 7.10026 5.74675
92 1 6.03187 8.49857 3.45029
73 1 4.15551 7.61733 8.61689
62 1 5.52223 7.39911 8.2504
61 1 5.52174 8.01486 6.86161
65 1 3.0987 6.69296 8.35168
102 1 4.14833 8.94277 9.21601
88 1 3.88034 11.4696 1.94567
85 1 3.55815 10.8498 0.634119
90 1 3.67955 9.39019 0.746317
97 1 5.58081 10.1893 5.08162
94 1 5.36205 11.6467 5.18536
20 1 3.15454 11.7124 4.48087
87 1 3.43783 11.0554 3.25235
93 1 5.41294 9.48462 6.41355
100 1 5.20168 10.227 7.65689
106 1 4.99669 11.5869 8.0502
33 1 3.70912 11.9699 8.73583
101 1 5.45263 9.47761 8.80097
98 1 3.461 11.1413 10.0119
103 1 3.29666 11.5287 11.4401
99 1 3.11514 9.81775 9.65649
114 1 8.64502 1.81513 0.38616
2 1 6.40033 1.57346 2.74638
15 1 6.63838 0.0813547 4.98914
19 1 6.64244 1.06268 3.96597
123 1 8.93412 0.687317 5.29835
26 1 6.12296 0.165846 8.60614
129 1 8.37918 0.393154 9.56439
130 1 8.13995 2.48756 11.461
134 1 6.72953 2.72126 11.0494
137 1 6.98765 0.642424 9.33616
147 1 7.82234 4.81952 2.4897
139 1 8.93828 5.49962 1.91779
156 1 6.74945 4.59043 4.59576
150 1 8.11406 4.19832 4.97692
141 1 6.60797 4.97097 3.3075
151 1 8.39362 5.22909 7.2876
166 1 7.20918 4.56679 7.94199
23 1 6.19944 4.24597 7.05656
165 1 8.58506 4.3878 9.89733
35 1 6.54388 3.01868 9.59387
167 1 7.39458 4.02483 9.19416
171 1 7.95767 8.47332 1.71903
140 1 7.65855 7.79712 0.509054
145 1 6.66422 6.77095 0.683348
142 1 8.12517 7.60252 2.86864
144 1 7.04987 7.52876 3.78645
148 1 7.09061 7.17234 5.07714
154 1 8.27171 6.86941 5.64606
153 1 8.32568 6.58375 7.09138
162 1 8.49738 7.70585 8.03709
184 1 8.0383 9.07922 7.77311
188 1 8.10718 8.26222 11.3411
160 1 7.87136 7.48211 10.2145
74 1 6.45425 6.84214 9.36382
81 1 6.54232 5.83081 11.6894
169 1 7.11645 9.56734 1.75378
91 1 6.00287 9.81334 0.900976
86 1 6.40179 10.6655 -0.12799
170 1 7.16029 10.3513 2.96998
174 1 8.40155 11.0048 3.10299
95 1 6.34557 9.79369 3.94158
121 1 7.86601 11.9757 5.58199
181 1 8.54838 11.2447 8.91352
178 1 8.39834 11.0455 6.47708
180 1 7.7907 10.0693 8.82784
177 1 8.5444 9.61376 6.43395
104 1 6.53877 9.85158 9.55923
110 1 6.37985 10.46 10.7183
115 1 10.7314 1.58405 2.14916
112 1 9.83655 1.67084 1.19855
116 1 11.9271 0.821569 2.46841
111 1 10.2616 2.03285 3.51872
120 1 9.92255 0.985051 4.37302
126 1 10.9096 -0.0939432 4.36194
127 1 9.95174 0.737064 7.93707
189 1 11.3129 0.22988 7.55013
135 1 10.0562 2.44697 9.8076
131 1 9.49954 1.34415 9.183
105 1 11.7675 -0.0320132 10.1291
119 1 9.76965 4.6961 1.1924
117 1 11.0085 4.38569 1.9085
113 1 9.77525 4.27297 -0.122113
146 1 10.8605 4.43374 3.38247
124 1 9.38714 3.72451 5.01124
128 1 10.0288 3.42765 3.84889
157 1 11.166 5.75153 3.88041
161 1 10.3545 4.95079 8.57366
155 1 9.64593 4.59419 7.37196
125 1 10.1775 3.86511 6.2607
133 1 11.5707 4.39409 8.98039
122 1 11.4452 3.38478 6.26316
163 1 9.36412 5.49774 9.4627
136 1 9.14165 3.4394 10.8948
132 1 11.4631 3.08838 9.68746
168 1 11.9883 7.06135 0.75058
143 1 9.12724 6.67996 2.84543
149 1 9.71378 7.22473 5.28048
138 1 10.0808 6.65654 3.85664
175 1 9.45922 8.87361 5.35518
152 1 10.9643 6.80182 6.20519
158 1 11.277 7.06148 10.2692
164 1 10.3265 7.84204 9.62537
79 1 11.3744 6.71985 11.6199
159 1 9.02193 7.08943 9.30709
172 1 10.1534 9.75527 4.41985
173 1 10.9761 10.7604 4.98272
179 1 9.50521 10.2049 3.26918
176 1 11.8638 10.5313 6.0953
182 1 11.2575 9.83284 8.34447
186 1 11.3203 10.8399 7.33154
185 1 9.15455 11.6115 7.63033
187 1 10.1545 10.0568 10.4763
190 1 10.736 11.2913 10.5689
183 1 10.6743 9.25463 9.41369
191 1 9.08359 9.35986 11.1705
ITEM: TIMESTEP
6000
ITEM: NUMBER OF ATOMS
191
ITEM: BOX BOUNDS pp pp pp
-1.1847779445497796e-01 1.2118477794455002e+01
-1.1847779445497796e-01 1.2118477794455002e+01
-1.1847779445497796e-01 1.2118477794455002e+01
ITEM: ATOMS id type x y z
5 1 2.81282 2.87413 2.51507
12 1 0.938151 0.447064 4.84647
118 1 -0.140215 0.527418 3.98502
31 1 2.78012 0.894889 8.83231
32 1 1.32351 0.862431 8.53971
11 1 0.515936 1.04821 7.31777
13 1 1.21505 1.26068 5.98633
17 1 2.41852 2.15016 5.96065
28 1 0.462311 0.855651 9.82703
38 1 2.50668 1.8686 10.8718
30 1 1.3693 2.72907 11.0178
29 1 0.230898 2.20642 10.4226
7 1 0.110436 4.60777 1.26754
6 1 1.12113 3.86368 0.822791
4 1 1.65604 3.02487 1.7162
63 1 0.577141 5.11379 8.66412
14 1 2.07464 3.53285 5.95325