ITEM: TIMESTEP
1000
ITEM: NUMBER OF ATOMS
191
ITEM: BOX BOUNDS pp pp pp
0.0000000000000000e+00 1.2000000000000000e+01
0.0000000000000000e+00 1.2000000000000000e+01
0.0000000000000000e+00 1.2000000000000000e+01
ITEM: ATOMS id type x y z
12 1 1.20509 0.848646 4.8824
1 1 2.45416 2.21262 3.44646
118 1 0.0568909 0.931156 4.21542
31 1 2.7963 1.20012 8.59879
32 1 1.33362 1.11411 8.47168
11 1 0.524598 1.20419 7.34151
17 1 2.71238 2.40746 6.16634
13 1 1.38231 1.67759 6.10224
28 1 0.600435 1.06936 9.68613
29 1 0.380463 2.49177 10.0643
30 1 1.54051 2.88833 10.6729
38 1 2.76966 2.1392 10.5977
4 1 2.18611 3.42645 1.49308
6 1 1.37529 4.1638 0.681185
7 1 0.316389 4.7799 1.23673
5 1 2.72351 3.38718 2.80547
53 1 0.358511 5.83537 4.1516
14 1 2.48962 3.77126 6.47623
22 1 1.04066 4.12647 6.92577
63 1 0.861504 4.89394 8.19573
34 1 1.60511 4.1806 11.3394
64 1 1.84804 5.17285 10.4568
66 1 1.97643 4.87993 9.13738
39 1 0.181589 8.50532 0.712513
43 1 2.65505 8.15867 0.868042
42 1 1.41328 7.99508 1.5577
45 1 0.410238 6.0196 1.6437
40 1 0.607622 6.50916 2.98891
41 1 1.37971 7.70322 2.91852
54 1 2.3679 6.52629 5.21292
50 1 2.14686 8.46843 3.69532
52 1 1.04645 6.21113 5.25484
60 1 2.43505 7.90596 4.88676
59 1 0.319578 6.54721 6.41356
67 1 1.82448 7.31926 8.10585
71 1 0.824954 6.39916 7.65354
108 1 1.50378 8.72625 8.5489
75 1 1.63839 8.73584 10.9
76 1 2.39605 7.75422 11.4558
77 1 2.36185 6.3648 11.1126
89 1 1.68557 10.4378 0.778156
84 1 1.26087 10.293 2.26055
96 1 1.39937 10.5244 5.80047
21 1 1.92503 11.6793 5.0829
83 1 1.97272 9.86486 3.45811
109 1 0.460584 9.13924 7.92927
107 1 1.96788 9.23301 9.68906
80 1 0.964113 9.47731 11.8748
3 1 3.46182 1.23958 3.5408
16 1 4.12741 0.164967 5.50129
2 1 4.94593 1.47411 3.18049
9 1 5.79569 2.82726 7.153
24 1 5.70492 2.43076 8.65892
26 1 5.83625 0.933983 8.58776
10 1 5.33926 2.06308 6.16372
18 1 3.95423 1.52412 6.0336
25 1 3.47206 2.22466 9.36298
36 1 3.1563 1.05003 11.3995
48 1 4.33373 4.65548 0.709691
44 1 5.99016 5.22315 2.44868
46 1 4.83482 4.57961 2.03733
8 1 3.91788 4.06314 2.96916
58 1 5.89245 4.77236 5.62939
56 1 5.05263 5.94244 5.47293
51 1 3.61934 5.79543 5.77172
70 1 3.40603 5.25056 8.37877
57 1 3.29911 4.88631 6.83742
78 1 5.12797 4.29346 11.5245
68 1 4.40579 4.42649 9.42396
69 1 5.059 5.21573 10.3426
27 1 4.47806 3.0505 9.22505
47 1 5.19546 7.94796 2.43487
82 1 4.90455 8.78538 1.39948
92 1 5.0144 8.61295 3.70179
55 1 5.95341 7.18716 5.53858
73 1 4.19161 7.74413 8.55678
62 1 5.53684 7.49362 7.95057
65 1 3.19209 6.8109 8.4114
61 1 5.63671 8.06901 6.60218
72 1 5.55993 6.5066 10.3029
81 1 5.54413 7.76087 11.0694
88 1 3.49987 11.0428 2.1632
85 1 3.16455 10.4098 1.00517
91 1 5.91697 9.71594 1.04399
90 1 3.67653 9.11918 1.0001
94 1 5.51007 11.7138 5.47563
97 1 5.54044 10.2859 5.25334
87 1 3.11333 10.7168 3.43176
20 1 3.18504 11.8843 4.2963
95 1 5.89847 9.73487 4.04418
93 1 5.64775 9.60237 6.45837
100 1 5.39615 10.4731 7.59658
101 1 5.51693 9.71445 8.84227
106 1 4.93343 11.8978 7.96221
33 1 3.59975 11.9983 8.55921
98 1 3.50555 11.1841 9.68144
103 1 3.22428 11.7935 10.9441
99 1 3.27887 9.79207 9.59418
102 1 4.32834 9.07969 9.01661
114 1 8.60925 1.0636 0.341457
15 1 6.28686 1.03729 5.36838
19 1 6.14573 1.31933 3.9212
121 1 7.76238 0.614062 5.91285
128 1 8.88866 2.97665 3.70562
129 1 8.35478 0.18746 9.37563
130 1 8.26103 2.13424 11.4211
137 1 7.02759 0.504277 9.32774
134 1 6.96563 2.54662 10.8961
35 1 6.87822 2.8466 9.43909
147 1 8.12484 3.78741 2.81579
139 1 8.95702 4.71955 2.11283
141 1 6.86754 4.534 3.29409
150 1 8.14886 4.52859 5.47536
156 1 6.87198 4.6036 4.71775
151 1 8.27125 5.07366 6.80782
166 1 7.22697 4.60737 7.64401
23 1 6.11789 4.13615 6.99852
167 1 7.57641 4.01855 8.90824
165 1 8.33637 4.89564 9.7276
37 1 6.09022 3.28999 11.648
49 1 6.32647 6.66491 2.15676
140 1 7.99375 7.68454 0.383597
142 1 8.58072 7.38481 2.5869
145 1 6.96274 6.67636 0.681379
171 1 8.11027 8.45739 1.63405
144 1 7.31434 7.04926 3.2988
148 1 7.18411 7.1601 4.73754
154 1 8.35935 7.1502 5.53352
153 1 8.1698 6.55922 6.73473
162 1 8.58165 7.49694 7.74916
184 1 8.14193 8.93666 7.51019
188 1 7.99517 8.26872 11.0671
74 1 6.48352 6.90777 9.14608
160 1 7.81743 7.2395 9.89896
169 1 7.09657 9.53003 1.87342
174 1 7.97704 10.9841 3.56656
170 1 6.93637 10.1165 3.21665
177 1 8.34338 9.55504 6.12299
178 1 8.10362 11.1346 6.34415
180 1 7.89147 9.70405 8.60484
181 1 8.60636 10.9521 8.71045
185 1 8.91145 11.4014 7.40967
104 1 6.73251 9.58153 9.41521
110 1 6.49943 9.08283 10.8292
86 1 6.07477 10.1283 11.7812
115 1 10.3233 1.23323 2.44296
116 1 11.6482 0.993539 2.82226
112 1 9.70433 1.22206 1.2498
111 1 9.4857 1.66562 3.53701
126 1 10.9251 0.207048 4.75638
120 1 9.76984 1.11383 4.82804
123 1 9.07273 1.35593 5.95414
127 1 9.85358 0.871564 7.35898
189 1 11.3665 0.497339 7.24559
131 1 9.26943 1.27343 8.8753
135 1 9.92736 2.45712 9.72437
136 1 9.31994 2.91918 10.9834
105 1 11.8296 0.0101488 10.1355
119 1 10.0568 4.12402 1.1601
117 1 11.2913 4.10232 1.87838
157 1 11.3328 4.9189 4.17809
124 1 9.18021 3.70881 5.01453
146 1 11.3855 3.97031 3.30822
138 1 10.2186 5.74187 3.89366
161 1 10.2777 4.94223 8.31128
155 1 9.72347 4.77316 7.05922
133 1 11.4486 4.36918 8.8939
122 1 11.7791 3.7662 6.22739
125 1 10.4313 4.01175 6.05778
163 1 9.44619 5.61201 9.18789
113 1 9.86272 3.82653 11.855
132 1 11.2015 3.12199 9.46298
143 1 9.41135 6.11047 2.82495
168 1 11.139 7.60473 0.563201
149 1 9.69535 7.6531 5.41856
152 1 10.827 7.13612 6.19421
159 1 9.168 7.09184 8.9772
158 1 11.2905 7.02504 10.2119
164 1 10.4181 7.84684 9.49228
79 1 11.2299 6.74242 11.5198
172 1 10.0074 10.0659 4.56232
173 1 11.0291 10.7553 5.07982
175 1 9.42791 9.05859 5.30838
179 1 9.28849 10.6904 3.58403
182 1 11.2861 9.8532 8.11419
186 1 11.4828 11.032 7.29613
176 1 11.9937 10.5963 6.03074
187 1 10.2157 9.88624 10.5578
190 1 10.9942 11.1135 10.7664
183 1 10.5117 9.3033 9.2034
191 1 9.03 9.33326 11.045
ITEM: TIMESTEP
2000
ITEM: NUMBER OF ATOMS
191
ITEM: BOX BOUNDS pp pp pp
-1.1132493777614166e-01 1.2111324937776134e+01
-1.1132493777614166e-01 1.2111324937776134e+01
-1.1132493777614166e-01 1.2111324937776134e+01
ITEM: ATOMS id type x y z
4 1 1.63913 2.74957 1.55934
5 1 2.90628 2.64203 2.26878
12 1 1.27698 0.637939 4.85218
118 1 0.198015 0.445391 4.01821
31 1 2.70866 0.905707 8.74747
32 1 1.35497 0.662273 8.50758
11 1 0.625795 0.760694 7.31419
17 1 2.6317 2.14414 6.13359
13 1 1.35685 1.37344 6.1566
28 1 0.391008 0.854243 9.65534
29 1 0.315562 2.37347 10.2114
30 1 1.48231 2.6134 10.965
38 1 2.626 1.931 10.7391
7 1 0.445403 4.76264 1.52343
6 1 1.06625 3.80863 0.750476
45 1 1.11154 5.80046 2.13631
14 1 2.25917 3.55802 6.60276
22 1 0.855537 3.91893 7.11126
63 1 0.706752 4.71177 8.31918
34 1 1.44982 4.01875 11.6873
64 1 1.86025 5.14786 10.6541
66 1 1.96553 4.66702 9.20673
39 1 -0.0511051 8.88099 0.946904
42 1 1.16965 8.23989 1.62468
43 1 2.32228 8.15546 0.726578
54 1 2.41501 6.56496 5.54157
50 1 2.07983 8.71895 3.94161
52 1 0.802172 6.32476 5.59631
40 1 0.958907 6.60322 3.21307
60 1 2.50431 7.92075 5.03129
53 1 0.204156 6.25509 4.34348
41 1 1.48116 7.83933 2.89415
108 1 1.42002 8.47859 8.64056
67 1 1.71791 7.07436 8.40755
71 1 0.74933 6.1703 8.06144
59 1 0.144592 6.65948 6.76739
109 1 0.296187 9.0209 8.08318
77 1 1.93184 6.39703 11.3103
76 1 1.91241 7.68962 11.6517
75 1 1.17612 8.84952 11.0671
89 1 1.52903 10.6378 0.716922
84 1 1.33988 10.4793 2.19969
80 1 0.768775 9.69463 -0.12197
83 1 2.17749 10.0032 3.31001
21 1 1.95806 11.631 5.03237
96 1 1.11799 10.5749 5.50606
176 1 -0.212035 10.5646 5.85796
107 1 1.91734 9.08653 9.77264
3 1 5.13772 1.32323 2.04795
1 1 3.91436 1.71887 1.98126
16 1 4.1655 0.065614 5.42626
18 1 3.93046 1.46876 5.79451
10 1 5.12606 1.93206 6.32574
24 1 5.61087 2.33081 8.60828
26 1 5.77464 0.784679 8.8085
9 1 5.75535 2.83278 7.29014
25 1 3.32514 2.01023 9.5109
36 1 2.91221 0.79816 11.5472
48 1 4.12369 4.88225 0.614295
44 1 5.51499 5.13287 2.67474
46 1 4.3632 4.73567 2.04926
8 1 3.45145 3.86425 2.68079
56 1 5.06462 5.74278 5.52298
58 1 5.96029 4.45602 5.77452
51 1 3.54551 5.72836 5.84275
70 1 3.21323 5.10758 8.5447
57 1 3.12598 4.64128 6.96498
78 1 4.93231 4.69122 11.6281
68 1 4.24851 4.41801 9.34701
69 1 4.79685 5.20382 10.3754
37 1 5.82071 3.65052 11.6807
27 1 4.33836 2.96781 9.29398
47 1 5.04865 7.79007 2.16421
82 1 4.62663 8.6742 1.24109
92 1 5.02905 8.31987 3.64363
55 1 5.69906 7.16714 5.46449
73 1 4.1277 7.67369 8.60763
62 1 5.42696 7.50173 8.05285
61 1 5.64961 8.03736 6.71008
65 1 3.16608 6.62424 8.48889
102 1 4.18789 9.08273 9.20576
72 1 5.2875 6.45203 10.1002
81 1 5.42187 7.70845 10.9636
88 1 3.52572 11.3109 1.93977
85 1 3.08544 10.7468 0.414975
91 1 5.74949 9.66935 0.974581
90 1 3.34363 9.06402 0.693822
94 1 5.56286 11.8429 5.34209
97 1 5.5254 10.4496 5.21151
20 1 3.28211 11.6002 4.52997
87 1 3.23924 10.9371 3.32317
95 1 5.6548 9.71499 3.94316
93 1 5.35235 9.69028 6.44639
100 1 5.23344 10.6346 7.69172
101 1 5.41333 9.82354 8.81104
33 1 3.5776 11.9786 8.95569
106 1 4.85468 12.0477 8.23714
98 1 3.33201 11.0186 10.2121
103 1 3.30731 11.5539 11.4708
99 1 3.2228 9.63024 9.97287
86 1 5.87815 10.0693 11.9646
114 1 8.86663 1.90191 0.451414
2 1 6.23177 1.33473 2.78158
15 1 6.87939 0.130993 4.95196
19 1 7.01126 0.705147 3.66043
121 1 8.11986 0.00106606 5.69537
129 1 8.31537 0.363992 9.43064
130 1 8.21569 2.58747 11.5604
137 1 6.79789 0.503397 9.89396
134 1 6.82581 2.81069 11.1524
147 1 7.85381 4.57551 2.35809
139 1 9.03875 5.34363 1.97697
141 1 6.57905 4.52742 3.21838
150 1 8.25308 3.77171 4.99108
156 1 6.84956 4.31926 4.65029
151 1 8.54265 5.25511 7.07865
166 1 7.5303 4.51712 7.71537
23 1 6.24007 4.07364 7.07971
167 1 7.59896 3.96203 9.00584
165 1 8.6882 4.34023 9.83416
35 1 6.70056 2.90176 9.49378
171 1 7.94947 8.4329 1.48094
140 1 7.48259 7.60164 0.321893
142 1 8.23998 7.54549 2.59118
145 1 6.65754 6.50898 0.706405
49 1 6.00604 6.47847 2.15751
144 1 7.07424 7.09817 3.27242
148 1 6.99564 7.01073 4.7235
154 1 8.28046 6.98109 5.40295
153 1 8.41162 6.54033 6.69523
162 1 8.54367 7.52395 7.70058
184 1 8.39469 8.9879 7.63913
74 1 6.42913 6.87491 9.03638
159 1 8.91427 7.01287 9.09529
188 1 7.75939 8.26527 11.0643
160 1 7.65559 7.20763 9.76918
110 1 6.46149 8.88324 10.8412
169 1 6.89892 9.41762 1.72966
170 1 6.84446 9.97262 3.06733
174 1 8.01267 10.756 3.30106
177 1 8.90067 9.73538 6.36002
178 1 8.72271 11.1191 6.43729
180 1 7.91225 9.79668 8.76828
181 1 8.50904 11.2133 8.79489
104 1 6.66446 9.67978 9.51413
191 1 8.91122 9.35525 10.8251
115 1 10.8272 1.50203 2.12536
112 1 9.91004 1.4552 1.07254
116 1 12.0786 0.893396 2.68707
111 1 10.257 2.08492 3.45912
120 1 10.1406 1.14572 4.52035
123 1 8.99929 0.989957 5.39548
126 1 11.1775 0.224073 4.61588
127 1 10.2362 0.57314 7.95705
189 1 11.5636 0.144006 7.39215
131 1 9.54394 1.31966 9.00338
135 1 10.0925 2.51236 9.84005
105 1 11.5724 -0.0776875 10.1216
119 1 10.027 4.80508 1.16548
117 1 11.2472 4.56736 1.81411
146 1 10.993 4.53378 3.23801
124 1 9.71525 3.72626 5.05989
128 1 10.4928 3.35198 3.86331
157 1 11.1877 5.81577 3.8638
161 1 10.536 5.12213 8.49444
155 1 9.81862 4.82079 7.12791
125 1 10.5562 4.17609 6.10106
122 1 11.8662 3.81866 6.35112
133 1 11.6063 4.3562 8.86713
163 1 9.32913 5.57406 9.25749
136 1 9.30477 3.33797 10.7655
113 1 9.87371 4.3338 12.1182
132 1 11.4044 3.02223 9.60726
143 1 9.29354 6.59882 2.7837
168 1 11.0545 7.98005 0.855364
149 1 9.40399 7.55816 4.76553
138 1 10.0904 6.75374 3.85282
175 1 9.60474 9.17256 5.14002
152 1 11.2607 7.47125 6.73289
158 1 11.1039 7.45864 10.5077
164 1 10.5195 7.93791 9.28769
79 1 10.7475 7.39797 11.9157
172 1 10.1634 10.1831 4.35067
173 1 11.2091 11.006 4.84935
179 1 9.34645 10.6818 3.37205
182 1 11.4413 9.88494 8.09702
186 1 11.541 10.9623 7.13968
185 1 9.35608 11.5423 7.64498
183 1 10.5272 9.36642 9.06213
187 1 10.0804 9.97993 10.2203
190 1 10.7605 11.0983 10.525
ITEM: TIMESTEP
3000
ITEM: NUMBER OF ATOMS
191
ITEM: BOX BOUNDS pp pp pp
-2.3713991789899830e-01 1.2237139917899009e+01
-2.3713991789899830e-01 1.2237139917899009e+01
-2.3713991789899830e-01 1.2237139917899009e+01
ITEM: ATOMS id type x y z
116 1 -0.0673468 1.43389 2.71196
12 1 0.914992 0.409083 4.89704
118 1 -0.0972776 0.558881 3.92602
13 1 1.11585 1.29249 6.0975
32 1 0.983514 0.864165 8.4645
11 1 0.330624 0.941722 7.21282
17 1 2.44263 2.07794 6.16113
31 1 2.54092 0.621582 8.83639
28 1 0.186331 1.02964 9.57949
29 1 0.106152 2.33659 10.1328
30 1 1.17737 2.5371 11.1006
38 1 2.53221 1.85011 11.0014
7 1 -0.0814084 4.51002 1.46647
6 1 0.865966 3.77371 0.668899
45 1 0.653561 5.47028 2.15826
4 1 1.71155 2.95366 1.53407
14 1 2.0392 3.44364 6.57533
63 1 0.350892 5.24751 8.94491
22 1 0.57639 3.83466 6.23766
57 1 2.93154 4.65958 7.11538
34 1 1.42786 3.82785 11.8459
64 1 1.8747 4.96558 10.964
66 1 1.66206 4.92337 9.48262
39 1 0.234242 8.53313 0.48883
42 1 1.3055 8.07767 1.39296
43 1 2.4397 8.05174 0.556658
41 1 1.34946 7.57524 2.75471
54 1 2.27698 6.61539 5.50423
50 1 2.03877 8.3514 3.62079
60 1 2.73461 7.62813 4.65025
52 1 0.809566 6.47764 5.58048
53 1 0.0538755 6.3627 4.27844
40 1 0.783046 6.4851 3.09421
108 1 1.55117 8.50973 8.72594
67 1 1.79608 7.05903 8.44617
71 1 0.681982 6.33944 8.01826
59 1 0.000864208 6.62714 6.74509
75 1 1.53671 8.67435 11.1551
76 1 2.19706 7.57053 11.7573
77 1 2.02891 6.33114 11.4463
107 1 2.02592 8.97044 9.96706
89 1 1.45211 10.5601 0.876399
84 1 1.24495 10.3812 2.28663
80 1 0.85844 9.52497 -0.394181
83 1 2.14055 9.79041 3.28443
21 1 1.67534 11.665 5.05311
96 1 1.12161 10.4588 5.52549
109 1 0.641046 9.19293 7.97458
3 1 4.27167 0.229496 2.12835
1 1 3.49302 1.36149 2.02781
2 1 5.72185 0.311345 2.26941
5 1 2.92539 2.71646 2.24337
16 1 4.04526 -0.0646591 5.39716
10 1 4.90188 2.05023 6.32304
18 1 3.75341 1.31674 5.91483
25 1 3.1165 1.78801 9.53808
24 1 5.57566 2.1748 9.45657
27 1 4.20899 2.75757 9.41484
26 1 5.82219 0.758699 9.23617
36 1 3.06374 0.638152 11.7045
48 1 4.59342 4.93196 0.442067
44 1 5.4677 5.42851 2.60444
46 1 4.47513 4.88498 1.81208
8 1 3.74217 3.83625 2.3678
58 1 5.83245 4.95136 5.82768
70 1 2.94726 4.91481 8.56844
51 1 3.21001 5.80932 6.20826
9 1 5.46589 2.92988 7.12731
78 1 4.98069 4.22235 11.6463
68 1 4.17314 4.29719 9.45482
69 1 5.07828 4.97041 10.3804
37 1 5.82712 3.0693 11.8822
47 1 4.83443 8.03174 2.37478
82 1 4.68058 8.78036 1.18626
49 1 5.64677 6.843 2.71361
55 1 5.62943 7.40015 5.75468
92 1 4.93967 9.04507 3.35393
56 1 4.80586 6.03113 5.94792
73 1 4.37038 7.51092 8.93268
62 1 5.72785 7.3496 8.36033
61 1 5.73431 8.14896 7.01007
65 1 3.2225 6.52481 8.72876
72 1 5.72122 6.26201 10.5583
102 1 4.33798 8.9696 9.48677
81 1 5.65308 6.88889 11.7419
88 1 3.60671 11.3719 2.10748
91 1 5.76129 9.57136 0.817678
85 1 3.07537 10.7393 0.580665
90 1 3.46569 9.17514 0.65591
94 1 5.41307 11.7983 5.26992
97 1 5.6522 10.3523 5.40656
20 1 3.17653 11.6674 4.71686
87 1 3.22844 10.8543 3.42625
95 1 6.06202 9.88995 4.06299
93 1 5.42254 9.77176 6.72362
100 1 5.26879 10.6691 7.87781
106 1 4.90326 12.1579 8.50362
101 1 5.3951 9.82609 9.06977
33 1 3.44773 11.9992 9.0432
98 1 3.17264 11.1404 10.1428
99 1 3.19046 9.68222 9.95191
103 1 3.00372 11.4913 11.5983
15 1 6.48964 0.0944466 4.72353
19 1 6.29901 0.57635 3.40671
123 1 8.85159 0.618084 4.82022
129 1 8.32578 0.142016 9.32823
137 1 6.99707 0.235291 9.60526
134 1 6.99852 2.72323 11.244
147 1 7.77285 4.54081 2.48791
139 1 8.95982 5.10324 2.14604
156 1 6.79713 4.49888 4.60026
150 1 8.1141 3.73178 4.91794
141 1 6.59494 4.70263 3.28118
151 1 8.40613 5.42436 7.26798
166 1 7.36112 4.53659 7.92729
23 1 6.29048 4.10627 7.13288
165 1 8.56215 4.84761 10.2134
136 1 8.80931 4.38088 11.5135
130 1 8.31407 3.22124 11.9807
167 1 7.58904 4.04439 9.20142
35 1 6.81158 2.81171 9.78334
171 1 7.76903 8.27448 1.35077
140 1 8.36595 7.87018 0.0141575
142 1 7.93979 7.34813 2.47531
145 1 9.07739 6.71154 -0.156403
143 1 9.05702 6.44643 2.65516
144 1 6.8063 7.17714 3.41622
148 1 6.90016 7.30827 4.83439
154 1 8.11467 6.92483 5.45521
153 1 8.36199 6.65703 6.85602
162 1 8.64582 7.78501 7.6708
188 1 8.15527 8.71866 11.1455
160 1 7.89722 7.73463 9.91426
74 1 6.55639 7.00655 9.5486
159 1 9.13333 7.35163 9.18388
169 1 6.84293 9.27625 1.70264
174 1 8.31146 10.7694 2.92161
121 1 7.88558 12.1407 5.20514
170 1 7.0579 10.0136 2.90843
177 1 8.82038 9.70166 6.16322
178 1 8.60632 11.265 6.08275
180 1 7.86093 10.0883 8.46163
181 1 8.50863 11.4029 8.54325
184 1 8.45228 9.17292 7.44206
104 1 6.69239 9.85506 9.49866
110 1 7.01072 9.67769 10.9729
86 1 6.28663 10.1196 12.0567
115 1 11.0411 1.83984 2.20467
112 1 10.4336 2.03941 0.887704
114 1 9.4273 2.3158 -0.0052718
111 1 10.4399 2.00422 3.45618
120 1 10.1735 0.825768 4.30079
126 1 11.1772 -0.116214 4.22065
127 1 10.2352 0.323267 7.69037
131 1 9.55165 1.14236 8.70645
189 1 11.5576 -0.0116419 7.4018
135 1 10.2451 2.31617 9.23866
105 1 11.8578 -0.0741362 9.94641
119 1 9.95114 4.87266 1.15071
117 1 11.0876 4.47309 1.9765
113 1 9.4389 5.24189 -0.103739
146 1 10.891 4.61324 3.50447
124 1 9.51773 3.54842 5.1394
128 1 10.4068 3.30398 4.03279
157 1 11.1293 5.9137 3.96114
161 1 10.3517 5.05184 8.63141
155 1 9.79897 4.84181 7.36285
122 1 11.686 3.62372 6.27156
125 1 10.2425 3.92783 6.3722
133 1 11.6142 4.39557 8.98145
163 1 9.44752 5.72784 9.52241
132 1 11.4973 3.11903 9.59989
168 1 11.5061 7.82032 0.121757
149 1 9.23309 7.51786 4.86696
138 1 9.9836 6.73229 3.83114
152 1 11.3152 7.24356 7.05473
158 1 11.3021 7.37194 10.1502
164 1 10.3759 8.03804 9.32578
79 1 11.437 7.22634 11.4492
179 1 9.57018 10.4786 2.91456
172 1 10.273 9.93804 4.05125
173 1 11.2417 10.9815 4.65673
176 1 12.1323 10.5224 5.68927
175 1 9.46839 8.96143 5.0602
182 1 11.7621 9.79596 8.11223
186 1 11.6795 10.7287 7.04707
185 1 9.09111 11.9977 7.20276
183 1 10.8254 9.32326 9.10209
187 1 10.4302 10.1707 10.1688
190 1 11.1039 11.3662 10.1013
191 1 9.36822 9.63878 11.0012
ITEM: TIMESTEP
4000
ITEM: NUMBER OF ATOMS
191
ITEM: BOX BOUNDS pp pp pp
-1.9773554050376471e-01 1.2197735540503748e+01
-1.9773554050376471e-01 1.2197735540503748e+01
-1.9773554050376471e-01 1.2197735540503748e+01
ITEM: ATOMS id type x y z
116 1 -0.0350582 0.998565 2.47052
12 1 1.14454 0.471301 4.81829
118 1 0.072229 0.491394 3.78517
31 1 2.74156 0.852964 8.65449
32 1 1.25812 0.753757 8.51672
11 1 0.368153 0.807983 7.2007
13 1 1.041 1.28056 6.04125
17 1 2.37379 2.11593 6.18999
28 1 0.371998 0.914199 9.69462
29 1 0.376961 2.36774 10.0902
30 1 1.36518 2.69898 11.0032
38 1 2.53802 1.84264 10.7775
45 1 0.57737 5.56631 2.08376
6 1 0.821979 3.72439 0.638432
7 1 -0.0253969 4.64541 1.30427
4 1 1.71652 2.92154 1.29397
14 1 2.14476 3.52747 6.59904
63 1 0.436083 5.09438 8.81271
22 1 0.7111 3.7033 6.29069
34 1 1.36702 3.95905 11.6835
64 1 1.84715 5.16629 10.8527
66 1 1.80667 4.92957 9.45854
39 1 0.147627 8.10409 0.731347
42 1 1.40533 7.99447 1.44959
43 1 2.55279 8.21085 0.605042
41 1 1.29601 7.74666 2.80796
54 1 2.57381 6.60513 5.49032
50 1 1.93993 8.59094 3.72386
53 1 0.0762066 6.12582 4.27532
52 1 0.887941 6.38879 5.34949
40 1 0.690582 6.50209 3.08572
60 1 2.82104 7.89695 4.7241
108 1 1.41896 8.54734 8.83291
67 1 1.74447 7.29119 8.30998
71 1 0.689512 6.31636 7.92175
59 1 0.111219 6.68807 6.65797
75 1 1.40294 8.71682 11.1637
76 1 2.23424 7.64322 11.7234
77 1 2.41595 6.29526 11.4538
107 1 1.95674 9.08792 9.91811
89 1 0.786521 10.45 0.644009
84 1 0.964468 10.3326 2.08631
80 1 0.540466 9.25473 -0.213742
96 1 1.08527 10.6428 5.57304
21 1 1.88916 11.6778 4.89076
83 1 1.8878 10.0934 3.03718
109 1 0.464203 9.29206 8.18278
105 1 -0.118378 12.1313 10.1189
3 1 4.25732 0.291211 1.87741
1 1 3.61106 1.41093 0.795553
2 1 5.26743 0.670416 2.85208
5 1 3.14395 2.53329 1.56322
16 1 3.91246 0.000419797 5.21643
18 1 3.63496 1.34387 5.9543
10 1 4.83718 1.81434 6.64221
9 1 5.84544 2.62777 6.99161
25 1 3.18265 1.93165 9.65303
27 1 4.26177 2.78399 9.45844
24 1 5.56464 2.14449 9.47517
36 1 3.23478 0.746337 11.9989
26 1 5.85939 0.640792 9.25507
48 1 4.27998 5.08312 0.579765
8 1 3.87822 3.58349 2.27612
46 1 4.3302 4.86774 1.97262
44 1 5.30861 5.59628 2.71286
37 1 5.83941 3.40857 -0.16373
58 1 5.82931 4.52453 5.73012
70 1 3.09237 5.2243 8.67421
51 1 3.5164 5.60692 6.13165
57 1 3.10086 4.60017 7.16899
56 1 4.97746 5.85631 6.04256
78 1 5.01291 4.51361 11.9227
68 1 4.28825 4.19448 9.42128
69 1 4.92872 4.95828 10.4927
47 1 4.82969 8.05336 2.50193
82 1 4.71178 8.84501 1.27369
92 1 4.65007 9.02679 3.46048
55 1 5.68637 7.08284 5.87634
49 1 5.50034 6.94878 2.9718
73 1 4.16724 7.72061 8.70505
62 1 5.56823 7.48247 8.28732
61 1 5.77054 8.0093 6.79434
65 1 3.13923 6.78974 8.46335
81 1 4.89387 7.3581 11.1561
72 1 5.37234 6.32915 10.3294
102 1 4.24512 8.98619 9.34441
88 1 3.83891 11.394 1.78124
91 1 5.88271 9.47591 0.796159
85 1 3.45127 10.7396 0.430132
90 1 3.46351 9.26043 0.668749
94 1 5.27268 11.8441 5.36269
97 1 5.61904 10.4417 5.28914
20 1 3.14733 11.5779 4.34644
87 1 3.12236 10.8778 3.00231
95 1 5.74358 9.69303 3.96763
93 1 5.65004 9.63992 6.68918
100 1 5.36739 10.5554 7.87432
106 1 5.12999 11.9438 8.51141
33 1 3.60851 12.1194 8.85293
101 1 5.47543 9.70053 9.08588
98 1 3.14677 11.321 10.0777
99 1 3.16732 9.91981 9.79444
103 1 3.34521 11.6681 11.484
123 1 8.94864 0.850009 4.93353
19 1 6.29468 0.930744 3.62042
15 1 6.45218 0.287113 4.84448
121 1 7.99407 -0.0682199 5.30937
137 1 7.1483 0.519143 9.75313
129 1 8.48173 0.163775 9.62148
147 1 7.56541 4.59513 2.35047
139 1 8.83019 5.21177 2.18149
156 1 6.76368 4.43905 4.63326
150 1 8.12683 3.81681 4.8656
141 1 6.4361 4.7514 3.20872
151 1 8.4306 5.22439 7.21178
166 1 7.3699 4.38649 7.71838
23 1 6.4363 3.83827 6.89235
165 1 8.4285 4.88924 9.9775
136 1 8.81628 4.37325 11.3449
130 1 8.38685 3.05827 11.8213
167 1 7.33526 4.17717 9.17281
35 1 6.64801 3.0396 9.92049
134 1 6.92754 2.9209 11.3985
171 1 7.84573 8.24703 1.53145
140 1 8.37679 7.98262 0.205773
142 1 7.91905 7.37748 2.68726
145 1 9.02879 6.62121 -0.0715267
144 1 6.81844 7.22293 3.54841
148 1 6.90248 7.12091 5.02762
154 1 8.21916 7.00265 5.50844
143 1 8.99583 6.51767 2.86647
153 1 8.3412 6.64813 6.88368
162 1 8.63986 7.70887 7.67372
159 1 9.05988 7.13967 9.05134
160 1 7.64698 7.1676 9.6975
74 1 6.26768 6.82165 9.34463
188 1 8.28044 8.93711 11.6393
169 1 6.92737 9.40653 1.78193
174 1 8.10807 10.4777 3.54079
170 1 6.8633 9.90924 3.15807
178 1 8.44022 11.299 6.30268
181 1 8.61931 11.364 8.82372
180 1 7.93805 9.97707 8.70762
177 1 8.72819 9.86518 6.22679
185 1 8.97909 11.9106 7.45419
184 1 8.41754 9.15506 7.55632
104 1 6.75041 9.7514 9.56483
110 1 7.12983 9.47682 11.0925
86 1 6.20217 9.9144 11.9889
115 1 10.9913 1.62122 2.08231
112 1 10.2347 1.74844 0.968369
114 1 9.2537 2.14177 -0.0122047
111 1 10.4393 1.99087 3.32229
120 1 10.1801 1.00059 4.32383
126 1 11.3534 -0.0198057 4.34851
127 1 10.0807 0.492109 7.83353
189 1 11.4972 0.0924372 7.50144
135 1 10.4224 2.26896 9.5008
131 1 9.71198 1.12185 9.1833
119 1 9.73531 4.92764 1.26849
117 1 10.9461 4.42922 1.794
113 1 9.376 5.24982 -0.0182612
146 1 10.8574 4.53593 3.23178
124 1 9.52272 3.46801 5.04171
128 1 10.2196 3.28589 3.73761
157 1 11.1146 5.74355 4.10604
161 1 10.4879 4.81174 8.35888
155 1 9.86451 4.58323 7.17904
133 1 11.7091 4.32967 8.84627
125 1 10.3567 3.90121 6.13174
122 1 11.7741 3.68179 6.0768
163 1 9.56574 5.68202 9.26219
132 1 11.6396 2.99277 9.46215
168 1 11.5904 7.23475 0.00681803
149 1 9.39621 7.7468 4.95517
138 1 10.0617 6.77919 4.05257
175 1 9.62925 9.05102 5.24687
152 1 11.6704 7.65212 6.57488
158 1 11.1978 7.25798 10.0961
79 1 11.5963 6.84894 11.2012
164 1 10.254 8.03077 9.53349
172 1 10.3495 9.98056 4.34179
173 1 11.2511 11.0263 4.8572
179 1 9.36411 10.4696 3.33912
176 1 12.1158 10.6314 5.87935
182 1 11.5835 9.93083 8.14005
186 1 11.6503 10.9931 7.135
187 1 10.422 10.1483 10.3688
190 1 11.2839 11.2575 10.5784
191 1 9.45076 9.66369 11.2626
183 1 10.606 9.34753 9.23661
ITEM: TIMESTEP
5000
ITEM: NUMBER OF ATOMS
191
ITEM: BOX BOUNDS pp pp pp
-9.9434912969135356e-02 1.2099434912969050e+01
-9.9434912969135356e-02 1.2099434912969050e+01
-9.9434912969135356e-02 1.2099434912969050e+01
ITEM: ATOMS id type x y z
116 1 0.112892 1.5193 2.76629
4 1 1.79008 2.86881 1.47488
12 1 1.24288 0.476379 4.97801
118 1 0.252298 0.804137 4.00417
31 1 2.78367 0.692687 8.90424
32 1 1.34131 0.7087 8.6332
11 1 0.62386 0.719914 7.34904
17 1 2.54047 2.05506 6.23322
13 1 1.36792 1.31816 6.26533
28 1 0.542552 1.00153 9.79317
29 1 0.476586 2.37308 10.2079
30 1 1.57706 2.75897 10.9528
38 1 2.68914 1.89141 11.048
45 1 0.9267 5.54099 2.12557
6 1 0.998346 3.821 0.781679
7 1 0.0715167 4.60806 1.48275
14 1 2.36586 3.46094 6.58757
63 1 0.713775 5.17555 8.72916
22 1 0.903961 3.73587 6.52971
34 1 1.55478 3.99034 11.608
64 1 1.87597 4.98225 10.7868
66 1 1.85989 4.83955 9.30642
39 1 0.0903568 8.26335 0.841687
42 1 1.31251 8.04455 1.57123
43 1 2.36883 8.07661 0.719883
41 1 1.40279 7.80706 2.94131
54 1 2.50752 6.57331 5.43944
50 1 2.0851 8.62374 3.76408
40 1 1.05585 6.47413 3.16479
52 1 1.04074 6.29047 5.50111
60 1 2.78414 7.77282 4.74657
53 1 0.306431 6.20773 4.30592
108 1 1.42843 8.52779 8.66307
67 1 1.85587 7.25138 8.17538
71 1 0.759583 6.24501 7.82822
59 1 0.226217 6.56981 6.68796
77 1 1.7919 6.32263 11.321
76 1 1.93629 7.68453 11.6959
75 1 1.14115 8.80051 11.138
89 1 0.59608 10.5029 1.11073
84 1 1.08476 10.3438 2.39689
80 1 0.499131 9.50066 0.0995695
96 1 1.03321 10.3785 5.45003
21 1 1.94092 11.3919 4.96598
83 1 2.13005 9.97583 3.22842
109 1 0.269972 9.01714 8.30045
107 1 1.93305 9.06704 9.94089
3 1 4.4343 0.319582 1.81688
1 1 3.52267 1.23188 1.05754
2 1 5.45749 0.935579 2.53428
5 1 3.08153 2.47572 1.62334
16 1 4.06206 0.0624519 5.31957
10 1 4.94585 1.97614 6.36462
18 1 3.82225 1.37629 5.99689
26 1 5.84548 0.733143 9.01317
25 1 3.22456 1.87736 9.68507
36 1 3.11119 0.82148 12.0091
24 1 5.69015 2.15771 9.19621
27 1 4.3933 2.65452 9.43614
48 1 4.52593 5.08328 0.549788
8 1 3.91697 3.5764 2.39977
46 1 4.42532 4.81129 1.91218
44 1 5.37004 5.37307 2.80947
58 1 6.11329 4.82244 5.81774
56 1 5.02416 5.85535 5.74523
70 1 3.20464 5.06964 8.56588
51 1 3.58821 5.71574 5.98841
57 1 3.2661 4.546 6.97771
78 1 5.04611 4.37676 11.6471
69 1 5.00001 4.94264 10.3608
68 1 4.24565 4.15784 9.36528
37 1 5.92304 3.22976 11.9172
47 1 4.72774 7.85612 2.53601
82 1 4.64167 8.46969 1.29975
55 1 5.80178 7.17347 5.68728
92 1 4.76059 8.77705 3.58274
49 1 5.57437 6.7973 2.8827
73 1 4.06721 7.6205 8.90524
62 1 5.38215 7.40615 8.11535
61 1 5.51862 8.04272 6.83321
65 1 3.14018 6.6658 8.57594
81 1 5.38242 7.00755 11.4874
72 1 5.4875 6.32076 10.3047
102 1 4.18752 9.00872 9.26711
88 1 3.92377 11.1738 1.87754
85 1 3.4036 10.5917 0.673206
90 1 3.43859 9.06072 0.79791
91 1 5.77329 9.15022 0.823077
94 1 5.36997 11.7116 5.32677
97 1 5.60964 10.3215 5.27313
20 1 3.2261 11.5478 4.53336
87 1 3.39682 10.7745 3.26152
95 1 5.77616 9.79199 3.98262
93 1 5.28074 9.72419 6.55749
100 1 5.24765 10.5068 7.78903
106 1 4.96625 11.7886 8.52556
98 1 3.44263 11.0236 10.4459
99 1 3.17028 9.69458 9.94979
103 1 3.19555 11.5719 11.7147
86 1 6.01199 9.44128 11.7093
101 1 5.4602 9.6532 8.94456
33 1 3.63829 11.8551 9.23429
123 1 8.72238 1.00401 5.02963
15 1 6.49232 0.270878 4.94445
19 1 6.27337 0.843377 3.64632
121 1 7.85209 -0.0603619 5.40171
9 1 6.03828 2.6741 6.68966
137 1 7.03758 0.51414 9.84881
129 1 8.27949 0.308989 9.19671
134 1 7.09191 2.75726 11.1495
147 1 7.61219 4.51317 2.35776
139 1 8.81505 5.3782 2.27557
156 1 6.92124 4.71601 4.6529
150 1 8.20579 4.05345 4.81151
141 1 6.54688 4.67449 3.22661
151 1 8.57899 5.23433 7.16375
166 1 7.32881 4.53765 7.87973
23 1 6.49345 3.96102 6.93953
165 1 8.70699 4.75116 9.95993
136 1 8.87313 4.23688 11.3037
130 1 8.38165 2.91584 11.6922
35 1 6.87832 2.96951 9.76714
167 1 7.48256 4.18031 9.22787
171 1 7.81158 8.33216 1.5498
140 1 8.42284 8.05342 0.309263
142 1 7.90226 7.45839 2.57284
143 1 8.9876 6.60543 2.94126
145 1 8.66624 6.67979 -0.0139667
144 1 6.77968 7.16407 3.45114
148 1 6.908 7.12124 4.78603
154 1 8.27516 7.14608 5.28939
153 1 8.46229 6.60713 6.56095
162 1 8.62612 7.59104 7.44004
160 1 7.6362 7.04666 9.47335
74 1 6.24759 6.84683 9.1072
188 1 8.2823 8.91888 11.4175
169 1 6.7994 9.35685 1.67749
174 1 7.65415 11.1053 3.20469
170 1 6.64006 10.1768 2.86966
179 1 8.98785 10.7415 3.12105
180 1 7.92877 9.91285 8.47022
181 1 8.3991 11.2721 8.42442
177 1 8.60734 9.66551 6.21235
178 1 8.59933 11.1291 6.10288
184 1 8.28945 8.9379 7.38918
104 1 6.8712 9.62406 9.47509
110 1 7.07612 9.43478 10.8517
115 1 10.9406 1.92378 2.27304
112 1 10.332 1.98557 1.09449
114 1 9.18028 2.3278 0.471066
111 1 10.3473 2.32681 3.4683
120 1 9.84699 1.13932 4.27478
126 1 11.1046 0.255765 4.33018
127 1 10.2225 0.386955 7.74491
131 1 9.57858 1.0706 8.94357
189 1 11.4935 -0.030504 7.35028
135 1 10.3207 2.23176 9.42615
105 1 11.8655 0.0822901 10.4593
119 1 9.77737 5.01875 1.29847
117 1 10.9905 4.72142 1.88326
113 1 9.21533 5.30826 0.0188281
146 1 10.8998 4.79264 3.32938
124 1 9.65053 3.64235 5.1743
128 1 10.3046 3.63793 3.90376
157 1 11.1245 6.05948 3.9548
161 1 10.4593 4.86052 8.55514
155 1 9.90104 4.74409 7.23466
125 1 10.4364 3.84516 6.28704
122 1 11.8026 3.38149 6.45466
163 1 9.47227 5.6464 9.24221
132 1 11.5934 3.00234 9.58046
133 1 11.6425 4.41659 9.12414
168 1 11.2649 7.54574 0.258514
149 1 9.40365 7.81096 4.76294
138 1 10.0211 6.98416 3.83157
152 1 11.5523 7.54989 6.40409
159 1 9.01446 7.14486 8.92161
158 1 11.1704 7.26733 9.98344
79 1 11.1535 7.01418 11.2842
164 1 10.2834 7.9678 9.24262
172 1 9.95711 10.2166 4.16937
173 1 10.8972 11.1077 4.68324
176 1 11.8281 10.6797 5.77804
175 1 9.27982 9.14723 4.91317
182 1 11.3563 9.79892 8.12158
186 1 11.5283 10.8267 7.14382
185 1 9.18412 11.7113 7.25108
187 1 10.3453 10.1369 10.2913
190 1 11.2503 11.1744 10.7482
191 1 9.33903 9.83442 11.1581
183 1 10.4674 9.56954 9.09047
ITEM: TIMESTEP
6000
ITEM: NUMBER OF ATOMS
191
ITEM: BOX BOUNDS pp pp pp
-1.0117869409087489e-01 1.2101178694090823e+01
-1.0117869409087489e-01 1.2101178694090823e+01
-1.0117869409087489e-01 1.2101178694090823e+01
ITEM: ATOMS id type x y z
4 1 1.62245 2.63864 1.77602
5 1 2.94887 2.24454 1.96486
12 1 1.13246 0.28586 5.07829
118 1 0.0503254 0.556314 4.1836
17 1 2.65408 1.80684 5.71449
116 1 0.107084 1.12371 2.90762
11 1 0.74947 0.846859 7.35971
32 1 1.48279 0.933885 8.62434
13 1 1.53749 1.07717 6.25634
28 1 0.644987 1.15599 9.8083
29 1 0.484296 2.45276 10.3303
30 1 1.64355 2.77428 11.1198
38 1 2.69618 1.87086 11.1874
31 1 2.9613 0.9968 8.93465