ITEM: TIMESTEP
1000
ITEM: NUMBER OF ATOMS
191
ITEM: BOX BOUNDS pp pp pp
0.0000000000000000e+00 1.2000000000000000e+01
0.0000000000000000e+00 1.2000000000000000e+01
0.0000000000000000e+00 1.2000000000000000e+01
ITEM: ATOMS id type x y z
12 1 1.20509 0.848646 4.8824
1 1 2.45416 2.21262 3.44646
118 1 0.0568909 0.931156 4.21542
31 1 2.7963 1.20012 8.59879
32 1 1.33362 1.11411 8.47168
11 1 0.524598 1.20419 7.34151
17 1 2.71238 2.40746 6.16634
13 1 1.38231 1.67759 6.10224
28 1 0.600435 1.06936 9.68613
29 1 0.380463 2.49177 10.0643
30 1 1.54051 2.88833 10.6729
38 1 2.76966 2.1392 10.5977
4 1 2.18611 3.42645 1.49308
6 1 1.37529 4.1638 0.681185
7 1 0.316389 4.7799 1.23673
5 1 2.72351 3.38718 2.80547
53 1 0.358511 5.83537 4.1516
14 1 2.48962 3.77126 6.47623
22 1 1.04066 4.12647 6.92577
63 1 0.861504 4.89394 8.19573
34 1 1.60511 4.1806 11.3394
64 1 1.84804 5.17285 10.4568
66 1 1.97643 4.87993 9.13738
39 1 0.181589 8.50532 0.712513
43 1 2.65505 8.15867 0.868042
42 1 1.41328 7.99508 1.5577
45 1 0.410238 6.0196 1.6437
40 1 0.607622 6.50916 2.98891
41 1 1.37971 7.70322 2.91852
54 1 2.3679 6.52629 5.21292
50 1 2.14686 8.46843 3.69532
52 1 1.04645 6.21113 5.25484
60 1 2.43505 7.90596 4.88676
59 1 0.319578 6.54721 6.41356
67 1 1.82448 7.31926 8.10585
71 1 0.824954 6.39916 7.65354
108 1 1.50378 8.72625 8.5489
75 1 1.63839 8.73584 10.9
76 1 2.39605 7.75422 11.4558
77 1 2.36185 6.3648 11.1126
89 1 1.68557 10.4378 0.778156
84 1 1.26087 10.293 2.26055
96 1 1.39937 10.5244 5.80047
21 1 1.92503 11.6793 5.0829
83 1 1.97272 9.86486 3.45811
109 1 0.460584 9.13924 7.92927
107 1 1.96788 9.23301 9.68906
80 1 0.964113 9.47731 11.8748
3 1 3.46182 1.23958 3.5408
16 1 4.12741 0.164967 5.50129
2 1 4.94593 1.47411 3.18049
9 1 5.79569 2.82726 7.153
24 1 5.70492 2.43076 8.65892
26 1 5.83625 0.933983 8.58776
10 1 5.33926 2.06308 6.16372
18 1 3.95423 1.52412 6.0336
25 1 3.47206 2.22466 9.36298
36 1 3.1563 1.05003 11.3995
48 1 4.33373 4.65548 0.709691
44 1 5.99016 5.22315 2.44868
46 1 4.83482 4.57961 2.03733
8 1 3.91788 4.06314 2.96916
58 1 5.89245 4.77236 5.62939
56 1 5.05263 5.94244 5.47293
51 1 3.61934 5.79543 5.77172
70 1 3.40603 5.25056 8.37877
57 1 3.29911 4.88631 6.83742
78 1 5.12797 4.29346 11.5245
68 1 4.40579 4.42649 9.42396
69 1 5.059 5.21573 10.3426
27 1 4.47806 3.0505 9.22505
47 1 5.19546 7.94796 2.43487
82 1 4.90455 8.78538 1.39948
92 1 5.0144 8.61295 3.70179
55 1 5.95341 7.18716 5.53858
73 1 4.19161 7.74413 8.55678
62 1 5.53684 7.49362 7.95057
65 1 3.19209 6.8109 8.4114
61 1 5.63671 8.06901 6.60218
72 1 5.55993 6.5066 10.3029
81 1 5.54413 7.76087 11.0694
88 1 3.49987 11.0428 2.1632
85 1 3.16455 10.4098 1.00517
91 1 5.91697 9.71594 1.04399
90 1 3.67653 9.11918 1.0001
94 1 5.51007 11.7138 5.47563
97 1 5.54044 10.2859 5.25334
87 1 3.11333 10.7168 3.43176
20 1 3.18504 11.8843 4.2963
95 1 5.89847 9.73487 4.04418
93 1 5.64775 9.60237 6.45837
100 1 5.39615 10.4731 7.59658
101 1 5.51693 9.71445 8.84227
106 1 4.93343 11.8978 7.96221
33 1 3.59975 11.9983 8.55921
98 1 3.50555 11.1841 9.68144
103 1 3.22428 11.7935 10.9441
99 1 3.27887 9.79207 9.59418
102 1 4.32834 9.07969 9.01661
114 1 8.60925 1.0636 0.341457
15 1 6.28686 1.03729 5.36838
19 1 6.14573 1.31933 3.9212
121 1 7.76238 0.614062 5.91285
128 1 8.88866 2.97665 3.70562
129 1 8.35478 0.18746 9.37563
130 1 8.26103 2.13424 11.4211
137 1 7.02759 0.504277 9.32774
134 1 6.96563 2.54662 10.8961
35 1 6.87822 2.8466 9.43909
147 1 8.12484 3.78741 2.81579
139 1 8.95702 4.71955 2.11283
141 1 6.86754 4.534 3.29409
150 1 8.14886 4.52859 5.47536
156 1 6.87198 4.6036 4.71775
151 1 8.27125 5.07366 6.80782
166 1 7.22697 4.60737 7.64401
23 1 6.11789 4.13615 6.99852
167 1 7.57641 4.01855 8.90824
165 1 8.33637 4.89564 9.7276
37 1 6.09022 3.28999 11.648
49 1 6.32647 6.66491 2.15676
140 1 7.99375 7.68454 0.383597
142 1 8.58072 7.38481 2.5869
145 1 6.96274 6.67636 0.681379
171 1 8.11027 8.45739 1.63405
144 1 7.31434 7.04926 3.2988
148 1 7.18411 7.1601 4.73754
154 1 8.35935 7.1502 5.53352
153 1 8.1698 6.55922 6.73473
162 1 8.58165 7.49694 7.74916
184 1 8.14193 8.93666 7.51019
188 1 7.99517 8.26872 11.0671
74 1 6.48352 6.90777 9.14608
160 1 7.81743 7.2395 9.89896
169 1 7.09657 9.53003 1.87342
174 1 7.97704 10.9841 3.56656
170 1 6.93637 10.1165 3.21665
177 1 8.34338 9.55504 6.12299
178 1 8.10362 11.1346 6.34415
180 1 7.89147 9.70405 8.60484
181 1 8.60636 10.9521 8.71045
185 1 8.91145 11.4014 7.40967
104 1 6.73251 9.58153 9.41521
110 1 6.49943 9.08283 10.8292
86 1 6.07477 10.1283 11.7812
115 1 10.3233 1.23323 2.44296
116 1 11.6482 0.993539 2.82226
112 1 9.70433 1.22206 1.2498
111 1 9.4857 1.66562 3.53701
126 1 10.9251 0.207048 4.75638
120 1 9.76984 1.11383 4.82804
123 1 9.07273 1.35593 5.95414
127 1 9.85358 0.871564 7.35898
189 1 11.3665 0.497339 7.24559
131 1 9.26943 1.27343 8.8753
135 1 9.92736 2.45712 9.72437
136 1 9.31994 2.91918 10.9834
105 1 11.8296 0.0101488 10.1355
119 1 10.0568 4.12402 1.1601
117 1 11.2913 4.10232 1.87838
157 1 11.3328 4.9189 4.17809
124 1 9.18021 3.70881 5.01453
146 1 11.3855 3.97031 3.30822
138 1 10.2186 5.74187 3.89366
161 1 10.2777 4.94223 8.31128
155 1 9.72347 4.77316 7.05922
133 1 11.4486 4.36918 8.8939
122 1 11.7791 3.7662 6.22739
125 1 10.4313 4.01175 6.05778
163 1 9.44619 5.61201 9.18789
113 1 9.86272 3.82653 11.855
132 1 11.2015 3.12199 9.46298
143 1 9.41135 6.11047 2.82495
168 1 11.139 7.60473 0.563201
149 1 9.69535 7.6531 5.41856
152 1 10.827 7.13612 6.19421
159 1 9.168 7.09184 8.9772
158 1 11.2905 7.02504 10.2119
164 1 10.4181 7.84684 9.49228
79 1 11.2299 6.74242 11.5198
172 1 10.0074 10.0659 4.56232
173 1 11.0291 10.7553 5.07982
175 1 9.42791 9.05859 5.30838
179 1 9.28849 10.6904 3.58403
182 1 11.2861 9.8532 8.11419
186 1 11.4828 11.032 7.29613
176 1 11.9937 10.5963 6.03074
187 1 10.2157 9.88624 10.5578
190 1 10.9942 11.1135 10.7664
183 1 10.5117 9.3033 9.2034
191 1 9.03 9.33326 11.045
ITEM: TIMESTEP
2000
ITEM: NUMBER OF ATOMS
191
ITEM: BOX BOUNDS pp pp pp
-1.1635471391562703e-01 1.2116354713915639e+01
-1.1635471391562703e-01 1.2116354713915639e+01
-1.1635471391562703e-01 1.2116354713915639e+01
ITEM: ATOMS id type x y z
5 1 2.89551 2.85038 2.09098
12 1 1.12075 0.576884 4.69871
118 1 0.102033 0.499489 3.83954
13 1 1.1829 1.38344 5.95633
31 1 2.64997 0.766351 8.80207
32 1 1.20285 0.75076 8.56543
11 1 0.504617 0.90822 7.2457
17 1 2.54025 2.29413 6.11044
28 1 0.341121 0.99182 9.61755
29 1 0.285295 2.27394 9.99006
30 1 1.4026 2.62632 10.9022
38 1 2.62691 1.97926 10.6835
7 1 0.270614 4.74789 1.26573
6 1 1.0962 3.96273 0.530828
45 1 0.833101 5.92714 1.93219
4 1 1.78287 3.03991 1.27817
14 1 2.36602 3.6282 6.64754
22 1 0.99092 3.82357 7.11063
63 1 0.690508 4.68477 8.28586
34 1 1.2918 3.99733 11.4004
64 1 1.9069 5.02289 10.6537
66 1 1.83734 4.72777 9.29063
39 1 0.212899 8.90381 0.85946
43 1 2.61082 8.28378 0.581137
42 1 1.40713 8.32141 1.52691
41 1 1.69125 7.82384 2.79098
54 1 2.43501 6.88396 5.65179
50 1 2.24583 8.76155 3.69625
52 1 0.967053 6.38711 5.50653
60 1 2.61577 8.08062 4.94711
40 1 1.16218 6.64073 3.07114
53 1 0.347849 6.22068 4.25724
108 1 1.28433 8.47389 8.41519
67 1 1.62918 7.11623 8.3605
71 1 0.660089 6.20098 7.96265
59 1 -0.0236498 6.62183 6.65149
109 1 0.127141 9.0482 7.81903
77 1 2.22317 6.31244 11.3921
76 1 2.04043 7.82055 11.5382
75 1 1.41454 8.89551 10.8843
89 1 1.58137 10.7092 0.403204
84 1 1.44349 10.7503 1.98839
96 1 1.37048 10.6617 5.7516
21 1 1.90588 11.7258 5.0468
83 1 2.50022 10.0146 3.14827
176 1 -0.0488393 10.8089 6.06975
107 1 1.78764 9.2357 9.57996
80 1 0.80768 9.71172 11.964
3 1 4.55639 0.840524 1.91435
1 1 3.82521 1.93981 1.84737
2 1 5.77798 0.741673 2.44873
18 1 3.74114 1.4266 5.86436
16 1 4.07193 0.113058 5.35108
9 1 5.5445 2.72089 7.30705
24 1 5.58486 2.2661 8.78566
10 1 4.8605 1.94247 6.44568
25 1 3.088 2.00706 9.33834
36 1 3.0802 0.773071 11.4393
27 1 4.10399 2.94071 9.07576
26 1 5.71105 0.683955 9.06259
48 1 4.24634 5.25435 0.643428
44 1 5.5624 5.33527 2.7477
46 1 4.31936 5.00931 2.03779
8 1 3.43418 4.03689 2.55497
56 1 5.15512 5.82331 5.61014
58 1 5.92451 4.56941 5.62875
70 1 3.13891 5.10621 8.40854
57 1 3.23333 4.87562 6.82673
51 1 3.59759 5.91726 6.01932
78 1 4.75051 4.73392 11.7519
68 1 4.36673 4.31919 9.26473
69 1 4.86143 5.1673 10.3412
37 1 5.65387 3.50416 11.8387
47 1 5.03291 7.98215 2.36623
82 1 4.72209 8.86868 1.40707
92 1 5.10736 8.50654 3.59942
73 1 4.07893 7.77103 8.56682
62 1 5.69507 7.42794 8.05749
61 1 5.8798 8.11016 6.80588
65 1 3.11362 6.75131 8.52768
72 1 5.27637 6.41983 10.2812
81 1 5.32911 7.59966 10.9787
88 1 3.76601 11.4939 1.93844
85 1 3.11457 10.8997 0.404735
91 1 5.90331 9.62305 1.02914
90 1 3.58412 9.27541 0.665697
87 1 3.38106 11.0479 3.35338
94 1 5.4595 11.7667 5.42056
20 1 3.17947 11.7517 4.55115
97 1 5.61454 10.2287 5.30329
95 1 5.73233 9.65798 3.95441
93 1 5.59715 9.6294 6.65089
100 1 5.47093 10.6587 7.8192
101 1 5.44798 9.78501 8.92351
106 1 4.92368 12.1289 8.20422
33 1 3.6335 11.9719 8.88344
102 1 4.24944 9.07708 9.07802
98 1 3.37962 11.1073 10.0188
103 1 3.38531 11.6483 11.3535
99 1 3.158 9.69902 9.61625
114 1 8.55733 1.62889 0.345837
15 1 6.74869 0.0931446 4.73025
19 1 6.53689 0.839382 3.53741
123 1 9.00247 0.875022 5.33964
129 1 8.20763 0.283941 9.6842
130 1 7.91006 2.56004 11.657
137 1 6.81004 0.317141 9.98161
134 1 6.6644 2.77189 11.123
147 1 7.85667 4.80401 2.41032
141 1 6.66737 4.51232 3.20892
150 1 8.28737 3.72081 4.81838
156 1 6.91912 4.23421 4.66187
151 1 8.52242 5.04775 7.16303
166 1 7.4834 4.43291 7.71563
23 1 6.22742 3.94884 7.01182
167 1 7.45124 3.92993 9.00954
165 1 8.49649 4.43452 9.94457
35 1 6.53467 2.95981 9.62599
136 1 9.04225 3.41596 10.9379
171 1 8.00245 8.40411 1.76626
140 1 7.61306 7.65931 0.335271
142 1 8.36049 7.41691 2.67487
145 1 6.72249 6.55721 0.879348
49 1 6.02399 6.72596 2.32368
144 1 7.19761 7.05749 3.3991
148 1 7.28973 7.05399 4.86931
154 1 8.52138 6.96518 5.59284
55 1 5.99131 7.06588 5.60846
153 1 8.34574 6.41071 6.94912
162 1 8.4477 7.48184 7.84538
184 1 8.26217 8.99075 7.79363
188 1 7.79887 8.31132 11.2031
160 1 7.74949 7.1559 9.96241
74 1 6.22053 6.67147 9.23349
110 1 6.46981 8.95842 10.8746
159 1 8.98855 7.01662 9.16994
169 1 6.94593 9.41566 1.96169
174 1 8.1456 10.6357 3.48355
170 1 6.952 10.0742 3.21742
121 1 7.94975 12.011 5.61014
177 1 8.87198 9.70555 6.51584
178 1 8.63672 11.118 6.51593
180 1 7.85799 9.90678 8.80859
181 1 8.27364 11.2295 8.95706
185 1 9.03915 11.7654 7.74778
104 1 6.70903 9.53494 9.54351
86 1 6.08224 9.92287 11.9542
191 1 8.94238 9.44912 11.0037
115 1 10.77 1.51663 2.06825
112 1 9.59495 1.32883 1.12669
116 1 12.0578 0.882801 2.3369
111 1 10.3424 1.93443 3.35486
120 1 10.1076 1.00307 4.47678
126 1 11.2498 -0.00767478 4.45705
127 1 10.0022 0.699764 7.94554
189 1 11.3079 0.370233 7.41275
135 1 9.88322 2.53135 9.92178
131 1 9.31788 1.25527 9.1804
105 1 11.5133 0.0628522 10.2774
119 1 10.0283 4.62469 1.10409
117 1 11.2776 4.36626 1.71037
139 1 9.07171 5.36868 1.94737
157 1 11.437 5.62805 3.84905
124 1 9.695 3.57514 5.0819
128 1 10.4696 3.28928 3.89391
146 1 11.3942 4.25066 3.26601
161 1 10.4231 4.96153 8.54149
155 1 9.95585 4.64236 7.23598
125 1 10.5833 3.96843 6.21633
122 1 12.05 3.72857 6.29007
133 1 11.5493 4.25907 9.01977
163 1 9.32952 5.445 9.33221
113 1 9.63379 4.22148 12.0501
132 1 11.2338 2.9552 9.74562
143 1 9.40332 6.618 2.54912
168 1 11.2753 8.01744 0.720019
149 1 9.77891 7.74512 5.60699
138 1 10.3934 6.5435 3.46363
152 1 10.9814 7.15319 6.12782
158 1 11.1639 7.20331 10.4701
164 1 10.3152 7.80105 9.35732
79 1 11.0354 7.36767 11.7897
172 1 10.2839 10.105 4.71144
173 1 11.3093 10.9812 4.99275
179 1 9.54503 10.4915 3.41907
175 1 9.63529 9.12902 5.56314
182 1 11.3425 9.89974 8.24439
186 1 11.6244 11.0694 7.42503
187 1 9.99959 9.98263 10.1929
190 1 10.7181 11.1235 10.4876
183 1 10.4931 9.23587 9.15016
ITEM: TIMESTEP
3000
ITEM: NUMBER OF ATOMS
191
ITEM: BOX BOUNDS pp pp pp
-2.2978502713853396e-01 1.2229785027138600e+01
-2.2978502713853396e-01 1.2229785027138600e+01
-2.2978502713853396e-01 1.2229785027138600e+01
ITEM: ATOMS id type x y z
116 1 -0.257556 0.934126 2.52002
12 1 1.04865 0.475811 4.93698
118 1 -0.000197718 0.582276 3.85738
31 1 2.6041 0.632437 8.93005
32 1 1.14906 0.703136 8.75402
11 1 0.380553 0.811081 7.54126
13 1 1.06352 1.1459 6.24018
17 1 2.19971 2.09279 6.50649
28 1 0.264886 0.860408 9.96571
29 1 0.128518 2.27087 10.1743
30 1 1.22013 2.73802 10.9338
38 1 2.54251 1.96235 10.847
36 1 2.75322 0.728947 11.6041
105 1 -0.369381 -0.255864 10.4825
7 1 0.0400055 4.60833 1.17623
6 1 1.10788 4.08349 0.374423
45 1 0.821315 5.58736 1.91537
4 1 2.14077 3.18189 0.964971
14 1 2.02781 3.7419 6.82867
22 1 0.674632 3.98582 7.13946
63 1 0.310423 4.84877 8.43315
57 1 2.93018 4.78368 7.0019
34 1 1.20428 4.04036 11.4361
64 1 1.63914 5.14175 10.628
66 1 1.65711 4.94694 9.30712
39 1 0.378005 8.42378 0.929885
42 1 1.70599 7.83287 1.518
43 1 2.67034 7.83547 0.406527
41 1 1.58175 7.4752 2.88836
54 1 2.15377 6.81729 5.74232
50 1 2.19733 8.46951 3.69796
52 1 0.708806 6.58402 5.46877
60 1 2.60694 7.80525 4.85812
40 1 1.04505 6.22394 3.07522
53 1 0.168596 6.23526 4.20182
108 1 1.16152 8.55459 8.93775
67 1 1.48447 7.26152 8.56367
71 1 0.459636 6.33777 7.83523
59 1 -0.207029 6.83044 6.60014
77 1 1.91257 6.32041 11.2784
76 1 2.00988 7.70216 11.5683
75 1 1.35308 8.9272 11.2652
89 1 1.4706 10.4416 0.765731
84 1 1.29773 10.3487 2.12921
80 1 0.736047 9.51789 0.0338793
83 1 2.06468 9.87539 3.23416
21 1 1.65408 11.725 4.99363
96 1 0.970574 10.7703 5.77381
109 1 0.252836 9.05534 8.11251
107 1 1.79269 9.1348 9.98047
3 1 4.3515 0.108766 1.87011
1 1 3.55824 1.24462 1.65402
2 1 5.59152 0.14766 2.60555
5 1 3.42516 2.7002 1.47922
16 1 4.00826 -0.0608635 5.45878
26 1 6.08043 0.134935 8.88286
10 1 4.74455 2.08056 6.39606
24 1 5.46815 2.6885 8.61242
9 1 5.46535 3.01898 7.15139
18 1 3.54716 1.4577 6.07916
25 1 3.20203 1.80738 9.44405
37 1 5.53636 2.66002 11.4158
48 1 5.39345 4.85687 -0.00463511
44 1 5.69323 5.58295 2.27113
46 1 5.2371 4.65095 1.37884
8 1 4.39798 3.65717 1.88212
56 1 4.81753 6.08553 5.59333
58 1 5.79223 4.86222 5.50248
51 1 3.26006 5.83864 6.04175
70 1 2.95874 5.27915 8.41922
27 1 4.09446 2.98531 8.98594
78 1 4.92761 4.02179 11.4717
69 1 4.70957 4.94994 10.3731
68 1 4.03489 4.49349 9.3058
47 1 5.03097 7.9621 1.95617
49 1 5.85238 6.88628 1.4414
82 1 4.78446 9.1615 1.12802
92 1 5.368 8.35417 3.35005
55 1 5.76122 7.14921 5.72493
73 1 4.0293 7.70472 8.75215
62 1 5.64306 7.51463 8.19011
61 1 5.62656 8.11852 6.80699
65 1 2.96611 6.78207 8.66455
102 1 4.12703 9.09149 9.24381
72 1 5.69943 6.16067 10.37
88 1 3.61501 11.3834 2.16165
91 1 5.98606 9.91784 1.00427
90 1 3.57733 9.39751 0.472131
85 1 2.98113 10.7091 0.559439
97 1 5.58917 10.1993 5.25175
94 1 5.42909 11.7525 5.44894
95 1 5.86478 9.56372 3.89677
87 1 3.04189 10.974 3.36779
20 1 3.00234 11.6392 4.64323
93 1 5.47558 9.56517 6.56009
100 1 5.263 10.5405 7.6995
106 1 4.89448 11.8207 8.23008
33 1 3.56226 11.9004 9.07692
101 1 5.43984 9.75982 8.9481
98 1 3.24113 11.0467 10.3016
99 1 3.10081 9.65355 9.8702
103 1 2.98345 11.7226 11.5191
114 1 8.6931 1.62734 0.334156
123 1 8.89156 0.712898 5.16093
19 1 6.27335 0.44635 3.65217
15 1 6.52794 -0.0942923 5.00192
121 1 7.79665 -0.0701132 5.53329
129 1 8.44816 0.193603 9.69472
130 1 8.1207 2.22494 11.4257
137 1 7.09777 0.380739 9.76807
134 1 6.82718 2.31367 10.6962
35 1 6.71514 2.87406 9.32342
147 1 8.02815 4.64259 2.22948
139 1 9.14585 5.4007 1.6665
156 1 6.91887 4.64156 4.49914
150 1 8.29169 4.24431 4.93647
141 1 6.81353 5.48945 3.29465
151 1 8.26073 5.39319 7.1705
166 1 7.18166 4.616 7.60699
23 1 5.9908 4.17072 6.79572
167 1 7.41642 4.01942 8.97717
165 1 8.43608 4.48201 10.0703
171 1 7.97252 8.50334 1.39323
140 1 7.59124 7.87847 0.0516171
142 1 8.33967 7.49234 2.47039
145 1 6.61426 6.98962 0.286032
144 1 7.40783 6.89898 3.53932
148 1 7.18481 7.29988 4.86073
154 1 8.44616 7.42279 5.61795
153 1 8.27631 6.84211 6.93596
162 1 8.63347 7.74653 7.97275
188 1 8.04934 8.6692 11.2819
160 1 7.77609 7.59526 9.99936
74 1 6.44885 7.05632 9.48453
159 1 9.02223 7.12198 9.25449
81 1 6.06165 6.03976 11.7666
169 1 7.07281 9.69479 1.81319
174 1 8.06814 10.9722 3.4125
170 1 7.02994 10.0714 3.17778
177 1 8.76236 10.0303 6.53293
178 1 8.50495 11.5572 6.64792
180 1 7.99902 10.2283 8.9352
181 1 8.70955 11.4124 8.99368
184 1 8.36895 9.48118 7.8069
104 1 6.66962 9.93915 9.59698
110 1 6.94296 9.83205 11.0083
86 1 6.26302 10.4066 12.0961
115 1 10.9736 1.53117 2.11826
112 1 9.98962 1.55719 1.03769
111 1 10.2383 1.97034 3.33736
120 1 10.0712 0.827467 4.30886
126 1 11.2114 -0.0302695 4.3195
127 1 10.3196 0.563095 8.21346
189 1 11.5589 0.0904324 7.71858
135 1 10.1005 2.38892 10.1168
131 1 9.68101 1.18193 9.4683
119 1 9.98367 4.34044 0.930885
117 1 11.3184 4.23254 1.68959
157 1 11.3294 5.6609 3.78933
124 1 9.68351 3.86386 4.96392
128 1 10.3332 3.36234 3.81306
146 1 11.0843 4.41984 3.11838
161 1 10.1979 4.96144 8.59809
155 1 9.60779 4.777 7.26529
125 1 10.4405 4.06878 6.20719
122 1 11.9389 3.89052 6.35804
163 1 9.2961 5.50239 9.4739
132 1 11.4043 3.04743 9.83926
113 1 9.6677 3.8136 12.2003
136 1 9.03403 3.30615 10.8929
133 1 11.4195 4.23643 8.95205
143 1 9.48225 6.66264 2.24919
168 1 11.8576 7.47333 0.606819
149 1 9.79404 8.00033 5.837
138 1 10.5413 6.71045 3.14284
152 1 11.0217 7.2937 6.15847
158 1 11.1748 7.18733 10.5822
164 1 10.4415 7.817 9.49307
79 1 11.5925 6.85289 11.8452
172 1 10.1052 10.368 4.68745
173 1 11.1744 11.2309 4.99709
179 1 9.36739 10.7868 3.60514
175 1 9.76164 9.5037 5.67562
182 1 11.5914 9.81961 8.2352
186 1 11.6459 11.0214 7.30873
185 1 9.21942 12.0931 7.73484
176 1 12.0354 10.8887 6.02759
187 1 10.4774 10.169 10.4981
190 1 11.0565 11.3275 10.4569
183 1 10.842 9.28932 9.40863
191 1 9.42994 9.60892 11.336
ITEM: TIMESTEP
4000
ITEM: NUMBER OF ATOMS
191
ITEM: BOX BOUNDS pp pp pp
-1.7795914691167286e-01 1.2177959146911714e+01
-1.7795914691167286e-01 1.2177959146911714e+01
-1.7795914691167286e-01 1.2177959146911714e+01
ITEM: ATOMS id type x y z
12 1 0.83727 0.580219 4.69979
31 1 2.4429 0.848033 8.80434
32 1 1.07265 0.672989 8.61305
11 1 0.470562 0.789284 7.34003
17 1 2.38459 2.18978 6.10411
13 1 1.18529 1.31916 6.07959
28 1 0.195845 0.740045 9.76827
29 1 0.0275079 2.27346 10.2548
30 1 1.21261 2.72444 11.034
38 1 2.51008 1.98783 10.8187
7 1 0.324988 4.56583 1.30591
6 1 1.31109 3.8294 0.618574
45 1 1.07858 5.4956 2.06851
4 1 2.25258 3.1981 1.29361
14 1 2.03926 3.7041 6.41419
63 1 0.561968 5.13603 8.59212
22 1 0.677445 3.92405 6.21869
34 1 1.35408 3.9867 11.5259
64 1 2.00823 4.97176 10.8173
66 1 1.7754 4.80072 9.39723
39 1 0.718513 8.08024 0.885105
42 1 2.0408 7.96612 1.44696
43 1 3.12461 8.14581 0.484433
41 1 2.04542 7.6101 2.85479
54 1 2.35849 6.75216 5.624
50 1 2.52233 8.71433 3.70979
52 1 0.820568 6.54903 5.49104
40 1 1.31804 6.41327 3.17393
60 1 2.58538 8.05068 4.90398
53 1 0.350797 6.15218 4.21291
108 1 1.35 8.51905 8.71957
67 1 1.85925 7.26846 8.20053
71 1 0.772433 6.30463 7.82579
59 1 -0.0849395 6.83014 6.58293
77 1 2.70337 6.08396 11.3839
76 1 2.52494 7.43039 11.6404
75 1 1.45399 8.62943 11.1225
107 1 1.82269 9.03956 9.90079
89 1 1.45762 10.4255 0.707711
84 1 1.24092 10.1217 2.16797
80 1 0.923035 9.22315 -0.109111
96 1 1.04095 10.731 5.64199
21 1 1.65362 11.7645 4.91882
83 1 2.24561 10.0132 3.05799
109 1 0.327042 9.1965 8.1068
3 1 4.4079 0.48617 1.79758
1 1 3.72893 1.32398 0.873724
2 1 5.4893 0.962436 2.63646
5 1 3.47176 2.61947 1.40052
16 1 4.00068 0.0830526 5.2953
18 1 3.81713 1.45288 5.8339
24 1 5.55181 2.18052 8.52387
26 1 5.69889 0.675158 8.68066
10 1 4.90299 2.2932 6.17978
9 1 5.52853 2.84303 7.23923
27 1 4.14524 2.88715 9.15935
25 1 3.16139 1.96023 9.537
36 1 3.24982 0.916647 12.0082
37 1 5.73046 2.88543 11.6839
48 1 5.06434 4.97018 0.195051
8 1 4.46674 3.47764 1.94794
46 1 4.9288 4.72361 1.56463
44 1 5.5604 5.70174 2.48621
58 1 5.97328 4.71844 5.73475
70 1 3.13406 5.17322 8.57297
57 1 2.81125 4.83431 6.94463
51 1 3.36404 5.79019 6.1155
78 1 5.03415 4.02589 11.4569
69 1 4.78828 4.78839 10.2868
68 1 4.11708 4.30959 9.17543
47 1 4.92226 8.18341 2.30066
49 1 5.53987 6.98716 1.91507
92 1 5.1342 8.80421 3.58294
55 1 6.01669 7.19207 5.8019
56 1 5.10028 5.91561 5.76766
73 1 4.1953 7.75626 8.95185
62 1 5.57078 7.54002 8.44907
61 1 5.70481 8.13142 6.99288
65 1 3.21106 6.82059 8.47168
81 1 5.37258 6.25597 11.8967
72 1 5.5828 6.0491 10.4151
88 1 3.75214 11.6119 1.96917
90 1 3.73022 9.40372 0.581012
82 1 4.91488 9.22958 1.24293
85 1 3.04038 10.8145 0.521978
97 1 5.55297 10.3414 5.49469
94 1 5.29505 11.7756 5.33052
20 1 3.06817 11.7156 4.52707
87 1 3.05063 11.1278 3.1679
95 1 5.9498 9.71608 4.27007
93 1 5.33778 9.67683 6.8293
100 1 4.88374 10.5299 7.91692
106 1 4.58956 12.0257 8.25619
33 1 3.2451 11.944 8.88169
98 1 2.97199 11.2734 10.1717
99 1 3.02087 9.81791 10.0596
103 1 3.07863 11.8723 11.6058
102 1 4.09026 9.02222 9.54405
101 1 5.20902 9.96652 9.18972
114 1 8.78176 2.00404 0.397363
123 1 8.73244 0.757899 4.94515
19 1 6.15308 1.05909 3.86566
15 1 6.40696 0.0126354 4.84575
134 1 6.91579 2.60921 11.0706
130 1 8.31891 2.84182 11.6933
129 1 8.26258 -0.0194228 9.34723
137 1 6.90273 0.211414 9.34877
35 1 7.05882 2.72997 9.48513
147 1 7.79431 4.81607 2.06037
156 1 6.83162 4.53346 4.60712
150 1 8.21003 4.11513 4.9546
141 1 6.86159 5.35965 3.31652
151 1 8.27545 5.14432 7.04831
166 1 7.45437 4.21315 7.66365
23 1 6.19045 4.06868 7.02522
167 1 7.68281 3.96813 8.99327
165 1 8.53901 4.68033 10.0526
136 1 8.87777 4.09698 11.2588
171 1 7.84613 8.26901 1.50099
140 1 7.38366 7.64286 0.197979
142 1 8.23725 7.3057 2.57607
145 1 6.16448 7.05345 0.547519
144 1 7.36713 6.69175 3.57824
148 1 7.29122 7.10921 4.99422
154 1 8.57062 7.09291 5.74821
153 1 8.33221 6.57293 7.03824
162 1 8.41168 7.64349 7.96757
184 1 7.96923 9.01378 7.73616
188 1 8.15404 8.26006 11.409
160 1 7.77973 7.57362 10.136
74 1 6.34819 6.93605 9.59893
159 1 8.95454 7.15803 9.23264
169 1 7.01692 9.46627 2.00024
91 1 6.12061 9.90062 1.01098
86 1 6.56014 10.5846 -0.1026
174 1 8.17306 10.669 3.45866
170 1 6.96287 10.0052 3.30316
121 1 7.80272 12.1023 5.34874
177 1 8.52842 9.68993 6.4731
178 1 8.38532 11.1528 6.32444
180 1 7.73974 9.93651 8.84703
181 1 8.40249 11.1344 8.57322
104 1 6.54388 10.1258 9.62574
110 1 6.8606 10.6907 10.9528
115 1 10.6783 1.5178 2.19373
112 1 9.72055 1.33161 1.16491
116 1 11.8031 0.608029 2.37359
111 1 10.1993 2.09767 3.47889
120 1 10.0435 0.984681 4.30446
126 1 10.9756 -0.0561633 4.37744
118 1 12.2303 0.294465 3.76954
127 1 10.0329 0.3629 7.7092
189 1 11.3913 0.0872264 7.42809
131 1 9.32538 1.04351 8.8724
135 1 10.1188 2.22745 9.26102
105 1 11.5637 0.0266499 10.4145
119 1 10.1639 4.68862 1.01151
117 1 11.2598 4.27541 1.86825
139 1 9.15017 5.35769 1.74028
157 1 11.3027 5.68439 3.93278
124 1 9.5525 3.81461 5.087
128 1 10.2113 3.42346 3.89639
146 1 10.9759 4.45896 3.24255
122 1 11.6992 4.04873 6.25614
161 1 10.3995 5.08251 8.65806
155 1 9.62391 4.63828 7.44412
133 1 11.6677 4.40021 8.92902
125 1 10.3457 4.05923 6.30959
163 1 9.45283 5.74638 9.44687
132 1 11.4216 3.04657 9.45142
113 1 9.93942 4.45379 12.0213
143 1 9.5072 6.54379 2.39291
168 1 12.1884 7.15567 0.479603
149 1 9.84527 7.74652 5.65526
138 1 10.4764 6.67809 3.49116
152 1 10.939 7.05145 6.36494
158 1 11.137 7.44819 10.4702
164 1 10.2522 8.00317 9.4146
79 1 11.4362 6.98503 11.6527
172 1 10.2262 10.0483 4.72903
173 1 11.1046 11.0761 5.02403
179 1 9.3953 10.0833 3.55688
175 1 9.68087 9.13745 5.69243
182 1 11.4144 9.92036 8.11998
186 1 11.5449 11.0106 7.23839
176 1 11.9762 10.7318 5.98809
185 1 9.14267 11.6221 7.42862
187 1 10.0703 10.3051 10.4983
190 1 10.822 11.425 10.7341
191 1 8.97177 9.43904 11.31
183 1 10.4125 9.30784 9.04698
ITEM: TIMESTEP
5000
ITEM: NUMBER OF ATOMS
191
ITEM: BOX BOUNDS pp pp pp
-8.6781779030918091e-02 1.2086781779030950e+01
-8.6781779030918091e-02 1.2086781779030950e+01
-8.6781779030918091e-02 1.2086781779030950e+01
ITEM: ATOMS id type x y z
4 1 1.93704 3.03205 1.54245
12 1 1.28686 0.55706 4.99135
118 1 0.256189 0.515539 3.98649
31 1 2.58113 0.87579 8.72334
32 1 1.14597 0.723884 8.67938
11 1 0.555728 0.653431 7.34081
13 1 1.25181 1.29292 6.22836
17 1 2.52673 2.17542 6.02296
28 1 0.356942 0.868678 9.89187
29 1 0.509128 2.36603 10.1844
30 1 1.65271 2.51896 10.9781
38 1 2.98368 1.8565 10.8827
7 1 0.304308 4.71323 1.27911
6 1 1.08403 3.79779 0.69021
45 1 1.03132 5.73464 1.86588
14 1 2.20753 3.52831 6.44905
63 1 0.549691 5.01512 8.79888
22 1 0.596115 3.71363 6.35686
57 1 3.05222 4.68985 6.85355
34 1 1.4452 3.87734 11.5403
64 1 1.87217 5.01829 10.9212
66 1 1.85183 4.8441 9.50681
39 1 0.301666 8.93717 0.987175
42 1 1.51928 8.35352 1.53896
43 1 2.63826 8.2225 0.622622
41 1 1.65203 7.80225 2.75971
54 1 2.46134 6.62148 5.43464
50 1 2.28657 8.68007 3.65189
52 1 1.05694 6.20392 5.47474
60 1 2.70267 7.96737 4.7318
40 1 1.16976 6.54557 2.96281
53 1 0.498511 6.11396 4.11527
108 1 1.43688 8.52326 8.60685
67 1 1.69844 7.13799 8.41304
71 1 0.592827 6.1509 7.90696
59 1 0.102488 6.54353 6.55455
109 1 0.176962 8.82475 8.15813
75 1 1.43431 8.98383 10.9785
76 1 1.99602 7.74843 11.6581
77 1 2.12477 6.41602 11.222
89 1 1.68191 10.7894 0.81952
84 1 1.36872 10.6123 2.26593
96 1 1.14284 10.4294 5.62259
21 1 1.96835 11.469 5.04516
83 1 2.28967 10.0489 3.27389
107 1 1.95166 9.25799 9.70488
80 1 0.85791 9.80569 12.1171
3 1 4.6014 0.496307 1.9408
1 1 3.90368 1.41291 1.03887
2 1 5.71858 0.784151 2.67598
5 1 3.30981 2.50964 1.68034
16 1 4.26859 0.150182 5.28225
18 1 3.84518 1.52178 5.68811
10 1 4.90063 2.40274 5.97161
24 1 5.51367 2.22965 8.46439
26 1 5.776 0.699263 8.40889
9 1 5.68317 2.80514 6.98139
27 1 4.24169 2.74205 8.93629
25 1 3.15167 1.97438 9.35198
36 1 3.55034 0.900456 11.8
37 1 5.65046 2.62954 11.5084
48 1 5.23005 4.71696 0.230692
8 1 4.1138 3.59472 2.14603
46 1 4.9928 4.65682 1.61458
44 1 5.56003 5.69868 2.30121
58 1 5.88559 4.8427 5.74548
70 1 3.07229 5.12698 8.5398
51 1 3.42609 5.79847 6.0335
78 1 4.92132 3.77298 11.3977
69 1 4.90505 4.6955 10.1167
68 1 4.25853 4.30708 8.98942
72 1 5.61024 6.02079 10.4373
47 1 5.16722 8.19082 2.16906
49 1 5.59347 6.9279 1.7307
92 1 5.12851 8.47149 3.57716
55 1 5.93086 7.15684 5.83454
56 1 5.0543 5.95412 5.85539
65 1 3.13103 6.68522 8.642
62 1 5.55826 7.51603 8.34481
61 1 5.72369 8.09856 6.95857
73 1 4.11681 7.66819 8.92555
81 1 5.72679 6.00394 11.8751
102 1 4.28186 8.95923 9.66078
88 1 3.79983 11.5333 2.00131
90 1 3.68186 9.15231 0.613365
82 1 4.9345 9.16172 1.10787
85 1 3.24477 10.9154 0.607742
91 1 6.04953 9.98869 0.898567
97 1 5.43903 10.1797 5.44085
94 1 5.44105 11.6149 5.44301
20 1 3.23663 11.5781 4.5746
87 1 3.42511 10.9277 3.22339
95 1 5.82959 9.5815 4.18375
93 1 5.41534 9.60124 6.77699
100 1 5.19149 10.4898 7.95361
106 1 4.77385 11.8314 8.27581
101 1 5.47946 9.77775 9.13891
98 1 3.52106 11.1202 10.2621
99 1 3.23283 9.81225 9.83659
103 1 3.49998 11.7116 11.4911
33 1 3.5597 11.8988 9.01621
114 1 8.92184 1.75639 0.0230952
123 1 8.89404 0.79078 4.94031
19 1 6.66816 0.747693 3.64219
15 1 6.63744 0.0484055 4.88456
134 1 6.92249 2.25555 10.7273
130 1 8.21983 2.47939 11.282
129 1 8.45042 0.343626 9.23612
137 1 7.0357 0.489384 9.25564
35 1 6.61634 2.85358 9.33362
147 1 7.73839 4.93344 2.3468
156 1 6.58597 4.54887 4.56094
150 1 7.7225 3.80789 4.86856
141 1 6.71862 5.49072 3.29999
151 1 8.34093 5.19591 7.261
166 1 7.1727 4.58143 7.72976
23 1 6.12499 4.18209 6.9587
165 1 8.27788 4.64456 9.94823
136 1 8.65386 3.83617 11.0791
167 1 7.24774 4.13657 9.01701
171 1 7.67878 8.34244 1.71884
140 1 7.39077 7.86795 0.312669
142 1 8.10552 7.41663 2.89509
145 1 6.25916 6.97908 0.396372
144 1 7.07608 6.86412 3.74546
148 1 7.22964 7.19679 5.11454
154 1 8.46751 7.05392 5.72385
153 1 8.49485 6.56118 7.07061
162 1 8.53281 7.64037 7.9195
184 1 8.47512 8.97466 7.59232
188 1 7.87946 8.37878 11.2403
160 1 7.70245 7.51532 10.2249
74 1 6.36139 6.96095 9.70523
159 1 8.84257 7.13176 9.42168
169 1 7.0064 9.65515 1.97748
86 1 6.48433 10.7108 -0.153584
174 1 8.23106 10.8726 3.3088
170 1 6.86915 10.2533 3.25936
121 1 7.90471 12.0383 5.39727
177 1 8.85347 9.49407 6.25265
178 1 8.5595 10.9686 6.20299
180 1 7.88418 10.0168 8.57756
181 1 8.60952 11.294 8.56353
104 1 6.79263 9.9955 9.53776
110 1 6.92212 10.6632 10.7354
191 1 8.69651 9.59911 11.2751
115 1 10.7686 1.49038 2.21911
112 1 9.78978 1.44078 1.06557
116 1 11.9939 0.873472 2.61711
111 1 10.2279 2.09786 3.51259
120 1 10.1433 1.05045 4.40676
126 1 11.1218 0.0665174 4.51699
127 1 10.2264 0.546259 7.67169
189 1 11.4252 -0.0181523 7.44883
131 1 9.56113 1.23667 8.84466
135 1 10.2095 2.30438 9.47629
105 1 11.6456 0.104171 10.7539
119 1 9.98432 5.03252 0.927851
117 1 11.1205 4.45634 1.83033
139 1 9.0381 5.50844 1.92517
146 1 11.0028 4.61469 3.27368
124 1 9.29615 3.69583 4.98385
128 1 10.0905 3.51984 3.9171
157 1 11.3128 5.76976 3.93911
161 1 10.2996 4.99785 8.55196
155 1 9.6526 4.4913 7.36491
133 1 11.4574 4.29798 9.15392
125 1 10.1304 3.87935 6.22074
122 1 11.5194 3.51985 6.13671
163 1 9.2396 5.68302 9.53906
132 1 11.4413 3.05177 9.69029
113 1 9.66141 4.34054 11.9503
143 1 9.20253 6.64228 2.74581
168 1 11.2719 8.28183 0.818214
79 1 10.7685 7.45402 -0.11011
149 1 9.90747 7.42147 5.15789
138 1 10.1931 6.69719 3.92461
175 1 9.63486 8.93731 5.20192
152 1 10.9556 7.00907 6.28685
158 1 10.7309 7.34819 10.7468
164 1 10.0581 7.8871 9.72684
172 1 10.1692 9.96441 4.40633
173 1 11.0923 10.8903 4.81267
179 1 9.40356 10.3619 3.38236
182 1 11.2887 9.71572 8.44325
186 1 11.3531 10.6779 7.31705
185 1 9.22345 11.6461 7.2952
176 1 11.939 10.4317 5.88362
187 1 9.84692 10.2035 10.5981
190 1 10.5167 11.4793 10.7625
183 1 10.3483 9.34416 9.43927
ITEM: TIMESTEP
6000
ITEM: NUMBER OF ATOMS
191
ITEM: BOX BOUNDS pp pp pp
-1.0012035136815957e-01 1.2100120351368219e+01
-1.0012035136815957e-01 1.2100120351368219e+01
-1.0012035136815957e-01 1.2100120351368219e+01
ITEM: ATOMS id type x y z
4 1 1.92875 3.00333 1.61914
116 1 -0.143616 1.30675 2.6788
12 1 1.15382 0.593018 4.85186
118 1 0.168549 0.807229 3.97089
31 1 2.59711 0.765229 8.78674
32 1 1.2073 0.703468 8.66906
11 1 0.55981 0.713989 7.39954
13 1 1.26293 1.17745 6.12199
17 1 2.48729 1.97779 6.20333
28 1 0.324241 0.945806 9.79161
29 1 0.193941 2.28018 10.2889
30 1 1.32075 2.74952 10.9775
38 1 2.5183 1.98347 10.7726
7 1 0.451405 4.83491 1.63734
6 1 1.13353 3.82608 0.855014
45 1 1.2441 5.42941 2.52606