ITEM: TIMESTEP
1000
ITEM: NUMBER OF ATOMS
191
ITEM: BOX BOUNDS pp pp pp
0.0000000000000000e+00 1.2000000000000000e+01
0.0000000000000000e+00 1.2000000000000000e+01
0.0000000000000000e+00 1.2000000000000000e+01
ITEM: ATOMS id type x y z
12 1 1.20509 0.848646 4.8824
1 1 2.45416 2.21262 3.44646
118 1 0.0568909 0.931156 4.21542
31 1 2.7963 1.20012 8.59879
32 1 1.33362 1.11411 8.47168
11 1 0.524598 1.20419 7.34151
17 1 2.71238 2.40746 6.16634
13 1 1.38231 1.67759 6.10224
28 1 0.600435 1.06936 9.68613
29 1 0.380463 2.49177 10.0643
30 1 1.54051 2.88833 10.6729
38 1 2.76966 2.1392 10.5977
4 1 2.18611 3.42645 1.49308
6 1 1.37529 4.1638 0.681185
7 1 0.316389 4.7799 1.23673
5 1 2.72351 3.38718 2.80547
53 1 0.358511 5.83537 4.1516
14 1 2.48962 3.77126 6.47623
22 1 1.04066 4.12647 6.92577
63 1 0.861504 4.89394 8.19573
34 1 1.60511 4.1806 11.3394
64 1 1.84804 5.17285 10.4568
66 1 1.97643 4.87993 9.13738
39 1 0.181589 8.50532 0.712513
43 1 2.65505 8.15867 0.868042
42 1 1.41328 7.99508 1.5577
45 1 0.410238 6.0196 1.6437
40 1 0.607622 6.50916 2.98891
41 1 1.37971 7.70322 2.91852
54 1 2.3679 6.52629 5.21292
50 1 2.14686 8.46843 3.69532
52 1 1.04645 6.21113 5.25484
60 1 2.43505 7.90596 4.88676
59 1 0.319578 6.54721 6.41356
67 1 1.82448 7.31926 8.10585
71 1 0.824954 6.39916 7.65354
108 1 1.50378 8.72625 8.5489
75 1 1.63839 8.73584 10.9
76 1 2.39605 7.75422 11.4558
77 1 2.36185 6.3648 11.1126
89 1 1.68557 10.4378 0.778156
84 1 1.26087 10.293 2.26055
96 1 1.39937 10.5244 5.80047
21 1 1.92503 11.6793 5.0829
83 1 1.97272 9.86486 3.45811
109 1 0.460584 9.13924 7.92927
107 1 1.96788 9.23301 9.68906
80 1 0.964113 9.47731 11.8748
3 1 3.46182 1.23958 3.5408
16 1 4.12741 0.164967 5.50129
2 1 4.94593 1.47411 3.18049
9 1 5.79569 2.82726 7.153
24 1 5.70492 2.43076 8.65892
26 1 5.83625 0.933983 8.58776
10 1 5.33926 2.06308 6.16372
18 1 3.95423 1.52412 6.0336
25 1 3.47206 2.22466 9.36298
36 1 3.1563 1.05003 11.3995
48 1 4.33373 4.65548 0.709691
44 1 5.99016 5.22315 2.44868
46 1 4.83482 4.57961 2.03733
8 1 3.91788 4.06314 2.96916
58 1 5.89245 4.77236 5.62939
56 1 5.05263 5.94244 5.47293
51 1 3.61934 5.79543 5.77172
70 1 3.40603 5.25056 8.37877
57 1 3.29911 4.88631 6.83742
78 1 5.12797 4.29346 11.5245
68 1 4.40579 4.42649 9.42396
69 1 5.059 5.21573 10.3426
27 1 4.47806 3.0505 9.22505
47 1 5.19546 7.94796 2.43487
82 1 4.90455 8.78538 1.39948
92 1 5.0144 8.61295 3.70179
55 1 5.95341 7.18716 5.53858
73 1 4.19161 7.74413 8.55678
62 1 5.53684 7.49362 7.95057
65 1 3.19209 6.8109 8.4114
61 1 5.63671 8.06901 6.60218
72 1 5.55993 6.5066 10.3029
81 1 5.54413 7.76087 11.0694
88 1 3.49987 11.0428 2.1632
85 1 3.16455 10.4098 1.00517
91 1 5.91697 9.71594 1.04399
90 1 3.67653 9.11918 1.0001
94 1 5.51007 11.7138 5.47563
97 1 5.54044 10.2859 5.25334
87 1 3.11333 10.7168 3.43176
20 1 3.18504 11.8843 4.2963
95 1 5.89847 9.73487 4.04418
93 1 5.64775 9.60237 6.45837
100 1 5.39615 10.4731 7.59658
101 1 5.51693 9.71445 8.84227
106 1 4.93343 11.8978 7.96221
33 1 3.59975 11.9983 8.55921
98 1 3.50555 11.1841 9.68144
103 1 3.22428 11.7935 10.9441
99 1 3.27887 9.79207 9.59418
102 1 4.32834 9.07969 9.01661
114 1 8.60925 1.0636 0.341457
15 1 6.28686 1.03729 5.36838
19 1 6.14573 1.31933 3.9212
121 1 7.76238 0.614062 5.91285
128 1 8.88866 2.97665 3.70562
129 1 8.35478 0.18746 9.37563
130 1 8.26103 2.13424 11.4211
137 1 7.02759 0.504277 9.32774
134 1 6.96563 2.54662 10.8961
35 1 6.87822 2.8466 9.43909
147 1 8.12484 3.78741 2.81579
139 1 8.95702 4.71955 2.11283
141 1 6.86754 4.534 3.29409
150 1 8.14886 4.52859 5.47536
156 1 6.87198 4.6036 4.71775
151 1 8.27125 5.07366 6.80782
166 1 7.22697 4.60737 7.64401
23 1 6.11789 4.13615 6.99852
167 1 7.57641 4.01855 8.90824
165 1 8.33637 4.89564 9.7276
37 1 6.09022 3.28999 11.648
49 1 6.32647 6.66491 2.15676
140 1 7.99375 7.68454 0.383597
142 1 8.58072 7.38481 2.5869
145 1 6.96274 6.67636 0.681379
171 1 8.11027 8.45739 1.63405
144 1 7.31434 7.04926 3.2988
148 1 7.18411 7.1601 4.73754
154 1 8.35935 7.1502 5.53352
153 1 8.1698 6.55922 6.73473
162 1 8.58165 7.49694 7.74916
184 1 8.14193 8.93666 7.51019
188 1 7.99517 8.26872 11.0671
74 1 6.48352 6.90777 9.14608
160 1 7.81743 7.2395 9.89896
169 1 7.09657 9.53003 1.87342
174 1 7.97704 10.9841 3.56656
170 1 6.93637 10.1165 3.21665
177 1 8.34338 9.55504 6.12299
178 1 8.10362 11.1346 6.34415
180 1 7.89147 9.70405 8.60484
181 1 8.60636 10.9521 8.71045
185 1 8.91145 11.4014 7.40967
104 1 6.73251 9.58153 9.41521
110 1 6.49943 9.08283 10.8292
86 1 6.07477 10.1283 11.7812
115 1 10.3233 1.23323 2.44296
116 1 11.6482 0.993539 2.82226
112 1 9.70433 1.22206 1.2498
111 1 9.4857 1.66562 3.53701
126 1 10.9251 0.207048 4.75638
120 1 9.76984 1.11383 4.82804
123 1 9.07273 1.35593 5.95414
127 1 9.85358 0.871564 7.35898
189 1 11.3665 0.497339 7.24559
131 1 9.26943 1.27343 8.8753
135 1 9.92736 2.45712 9.72437
136 1 9.31994 2.91918 10.9834
105 1 11.8296 0.0101488 10.1355
119 1 10.0568 4.12402 1.1601
117 1 11.2913 4.10232 1.87838
157 1 11.3328 4.9189 4.17809
124 1 9.18021 3.70881 5.01453
146 1 11.3855 3.97031 3.30822
138 1 10.2186 5.74187 3.89366
161 1 10.2777 4.94223 8.31128
155 1 9.72347 4.77316 7.05922
133 1 11.4486 4.36918 8.8939
122 1 11.7791 3.7662 6.22739
125 1 10.4313 4.01175 6.05778
163 1 9.44619 5.61201 9.18789
113 1 9.86272 3.82653 11.855
132 1 11.2015 3.12199 9.46298
143 1 9.41135 6.11047 2.82495
168 1 11.139 7.60473 0.563201
149 1 9.69535 7.6531 5.41856
152 1 10.827 7.13612 6.19421
159 1 9.168 7.09184 8.9772
158 1 11.2905 7.02504 10.2119
164 1 10.4181 7.84684 9.49228
79 1 11.2299 6.74242 11.5198
172 1 10.0074 10.0659 4.56232
173 1 11.0291 10.7553 5.07982
175 1 9.42791 9.05859 5.30838
179 1 9.28849 10.6904 3.58403
182 1 11.2861 9.8532 8.11419
186 1 11.4828 11.032 7.29613
176 1 11.9937 10.5963 6.03074
187 1 10.2157 9.88624 10.5578
190 1 10.9942 11.1135 10.7664
183 1 10.5117 9.3033 9.2034
191 1 9.03 9.33326 11.045
ITEM: TIMESTEP
2000
ITEM: NUMBER OF ATOMS
191
ITEM: BOX BOUNDS pp pp pp
-1.1236426364138577e-01 1.2112364263641402e+01
-1.1236426364138577e-01 1.2112364263641402e+01
-1.1236426364138577e-01 1.2112364263641402e+01
ITEM: ATOMS id type x y z
5 1 2.89257 2.62418 2.35265
4 1 1.67239 2.67407 1.51024
12 1 1.24504 0.591158 4.82872
118 1 0.219062 0.363243 3.9268
31 1 2.76987 0.835835 8.73079
32 1 1.20291 0.617989 8.59591
11 1 0.587777 0.835476 7.39207
17 1 2.54015 2.16028 6.24536
13 1 1.37478 1.33062 6.1464
28 1 0.219903 0.956326 9.67283
38 1 2.70224 2.00694 10.8002
30 1 1.44727 2.68479 10.9916
29 1 0.314414 2.36386 10.1967
7 1 0.448528 4.72917 1.45437
6 1 1.01156 3.7352 0.763916
45 1 1.1801 5.74705 2.10367
14 1 2.14909 3.57558 6.64499
22 1 0.888074 3.91561 6.99901
63 1 0.749891 4.67312 8.33253
34 1 1.40236 3.92002 11.6481
64 1 1.84762 5.07374 10.7366
66 1 1.92033 4.79028 9.34309
39 1 0.149019 8.70291 0.939317
43 1 2.30063 8.09804 0.767127
42 1 1.25978 8.05998 1.76
54 1 2.3972 6.60371 5.53602
50 1 2.06279 8.71381 3.94967
52 1 0.912385 6.42362 5.64776
40 1 0.950143 6.50042 3.25364
60 1 2.61993 7.93435 5.02066
53 1 0.246743 6.20565 4.3921
41 1 1.6003 7.74567 3.02467
108 1 1.35797 8.45425 8.6938
67 1 1.79754 7.12968 8.36244
59 1 0.192556 6.67474 6.80444
71 1 0.750358 6.25294 8.02024
77 1 2.02065 6.35488 11.3635
76 1 1.79666 7.66973 11.6524
75 1 1.22953 8.8698 11.1052
89 1 1.50472 10.6941 0.764159
84 1 1.38831 10.4824 2.14851
80 1 0.774538 9.62975 0.068946
83 1 2.13762 10.0069 3.33974
21 1 1.97802 11.6151 5.04185
96 1 1.16649 10.5068 5.49714
109 1 0.283786 9.1079 8.13125
107 1 1.80918 9.06149 9.78407
3 1 5.13559 1.24477 1.90501
1 1 3.90851 1.6895 2.25662
16 1 4.2249 0.032009 5.44572
18 1 3.94923 1.34287 5.95579
26 1 5.78619 0.860915 8.83778
24 1 5.65794 2.30473 8.61321
10 1 4.97304 2.12475 6.34575
9 1 5.75136 2.81433 7.20021
25 1 3.21671 2.07132 9.51499
36 1 2.96363 0.836255 11.6577
48 1 4.15069 4.73478 0.671881
44 1 5.44867 5.16948 2.6156
46 1 4.33304 4.70905 2.05728
8 1 3.36219 3.90522 2.76215
56 1 5.037 5.73866 5.6267
51 1 3.47914 5.75845 5.91093
58 1 5.8683 4.55494 5.74324
70 1 3.1245 5.12914 8.4825
57 1 3.17275 4.72618 6.96351
78 1 4.89859 4.52388 11.6009
68 1 4.19082 4.44098 9.24773
69 1 4.86746 5.13242 10.3542
37 1 5.77994 3.35534 11.6023
27 1 4.31252 2.96556 9.23328
47 1 5.01826 7.72556 2.22073
82 1 4.63386 8.70527 1.25302
92 1 4.86527 8.36119 3.4879
55 1 5.82377 7.07842 5.54638
73 1 4.12 7.64876 8.49906
62 1 5.45791 7.41245 8.04566
61 1 5.62382 8.0941 6.69406
65 1 3.16884 6.62081 8.4943
72 1 5.34497 6.52183 10.0851
81 1 5.52602 7.65863 10.9683
102 1 4.21059 8.9454 9.20721
88 1 3.46177 11.4462 1.95793
91 1 5.65951 9.61654 0.950945
85 1 3.16595 10.7613 0.627592
90 1 3.32295 9.1117 0.928915
87 1 3.29805 10.9613 3.34987
94 1 5.54963 11.8164 5.32927
20 1 3.29214 11.62 4.56936
97 1 5.61339 10.3514 5.21735
95 1 5.62886 9.64044 3.95817
93 1 5.40005 9.69123 6.52211
100 1 5.29872 10.6694 7.69929
101 1 5.38967 9.77109 8.89644
106 1 4.82231 12.0067 8.19937
98 1 3.33576 11.031 10.157
99 1 3.20349 9.58307 10.0217
103 1 3.15914 11.6876 11.4722
86 1 5.94837 9.9501 11.8103
33 1 3.67801 11.8653 9.10782
114 1 8.7293 1.93334 0.415693
2 1 6.34138 1.27135 2.60576
15 1 6.83352 0.174441 5.00349
19 1 6.97511 0.676488 3.66589
121 1 8.10835 0.0487664 5.74822
129 1 8.19562 0.324788 9.48253
130 1 8.12518 2.56691 11.4481
137 1 6.79243 0.340007 9.73997
134 1 6.79081 2.65286 10.983
147 1 7.75204 4.58733 2.33288
139 1 8.98315 5.2853 2.00354
141 1 6.56686 4.52335 3.1519
150 1 8.17382 3.80078 4.94096
156 1 6.86297 4.26779 4.69766
151 1 8.57617 5.28746 6.9809
166 1 7.54468 4.54309 7.71833
23 1 6.27436 4.12367 7.06681
165 1 8.69136 4.46989 9.82428
35 1 6.77127 3.13312 9.48314
167 1 7.65059 4.10655 9.02282
171 1 7.84132 8.47413 1.43099
140 1 7.62036 7.70099 0.273273
142 1 8.19945 7.60289 2.61247
145 1 6.67902 6.56409 0.768794
49 1 6.00091 6.56483 2.20167
144 1 7.0181 7.09955 3.36524
148 1 7.08877 6.92618 4.70386
154 1 8.31482 7.10039 5.38621
153 1 8.3192 6.63425 6.67417
162 1 8.57477 7.6652 7.67641
159 1 9.01229 7.04484 9.06014
74 1 6.32754 6.88048 9.04009
188 1 7.87348 8.26112 11.0703
160 1 7.64895 7.37213 9.6877
110 1 6.49082 8.98733 10.7776
169 1 6.89299 9.44576 1.68083
174 1 8.05252 10.7265 3.26764
170 1 6.87861 10.013 3.07138
177 1 8.92302 9.69049 6.17392
178 1 8.71816 11.1102 6.36803
180 1 7.91888 9.77016 8.62149
181 1 8.43876 11.2699 8.67705
184 1 8.41663 9.04225 7.50495
104 1 6.76946 9.51708 9.42654
191 1 8.99378 9.42758 10.8752
115 1 10.9316 1.54544 2.20654
112 1 9.83676 1.5883 1.05384
116 1 12.1319 0.988009 2.72109
111 1 10.2492 2.06867 3.44217
126 1 11.2011 0.142376 4.59081
120 1 10.1105 1.10705 4.53722
123 1 9.08092 1.05594 5.40199
127 1 10.2002 0.574393 7.87054
189 1 11.5641 0.15502 7.40987
131 1 9.53611 1.33975 9.00245
135 1 10.0954 2.42087 9.91373
105 1 11.6032 -0.0572996 10.1239
119 1 9.97759 4.73481 1.03054
117 1 11.2387 4.6287 1.75803
157 1 11.1883 5.78244 3.90205
124 1 9.62463 3.76768 5.03056
128 1 10.4 3.43624 3.8469
146 1 11.0419 4.53601 3.2652
161 1 10.4854 5.08792 8.47607
155 1 9.9265 4.89351 7.14201
122 1 11.8531 3.84739 6.33998
125 1 10.4539 4.037 6.14752
133 1 11.5351 4.35982 9.00884
163 1 9.42661 5.52082 9.22721
136 1 9.21748 3.41942 10.7166
113 1 9.65235 4.32139 12.0173
132 1 11.393 3.1157 9.71323
143 1 9.32158 6.53675 2.76489
168 1 11.2918 7.86679 0.711204
149 1 9.51037 7.63348 4.85359
138 1 10.1176 6.73424 3.81784
152 1 11.2745 7.4977 6.83031
158 1 11.1439 7.45851 10.4513
164 1 10.3518 7.8875 9.35087
79 1 10.8634 7.46267 11.7896
172 1 10.3582 10.0418 4.39076
173 1 11.2095 10.9905 4.86985
179 1 9.39859 10.6486 3.49206
176 1 11.9987 10.662 5.86633
175 1 9.55903 9.08985 5.11323
182 1 11.484 10.0123 8.083
186 1 11.5702 11.0183 7.16555
185 1 9.37092 11.6707 7.57883
183 1 10.5125 9.34824 8.91623
187 1 10.1252 9.9461 10.2325
190 1 10.626 11.2398 10.3751
ITEM: TIMESTEP
3000
ITEM: NUMBER OF ATOMS
191
ITEM: BOX BOUNDS pp pp pp
-2.0927942254471665e-01 1.2209279422544743e+01
-2.0927942254471665e-01 1.2209279422544743e+01
-2.0927942254471665e-01 1.2209279422544743e+01
ITEM: ATOMS id type x y z
4 1 1.72054 2.59335 1.16469
12 1 0.855855 0.786891 5.0381
118 1 -0.303863 0.546774 4.03343
17 1 2.34266 2.14284 6.29519
32 1 1.25459 0.754256 8.67609
11 1 0.468382 0.720301 7.48388
13 1 1.12398 1.3369 6.35959
31 1 2.82473 0.859407 8.85398
28 1 0.292279 0.767752 9.73453
38 1 2.47659 1.83516 11.0117
30 1 1.25232 2.52585 11.1116
29 1 0.0976842 2.0272 10.3981
36 1 3.13262 0.641749 11.6441
7 1 0.481408 4.65585 1.53869
6 1 1.12197 3.76855 0.68661
45 1 1.0405 5.7781 2.14024
14 1 2.07138 3.46914 6.75181
22 1 0.649074 3.7703 7.08277
63 1 0.490103 4.50435 8.46028
34 1 1.13685 3.9016 11.6252
64 1 1.64064 4.90531 10.8029
66 1 1.73248 4.53456 9.31442
39 1 0.24809 8.57811 0.71268
43 1 2.64887 8.10154 0.67135
42 1 1.46631 8.13812 1.44782
41 1 1.37632 7.94276 2.7751
54 1 2.25594 6.67467 5.50809
50 1 2.12986 8.77001 3.60668
52 1 0.841909 6.30145 5.48435
40 1 0.795799 6.72652 3.07977
53 1 0.103814 6.32674 4.22426
60 1 2.61937 8.0136 4.89363
108 1 1.40702 8.36892 8.86199
67 1 1.50417 6.97226 8.48817
59 1 0.083581 6.52286 6.65308
71 1 0.608213 6.11264 7.91989
75 1 1.63779 8.71442 11.1677
76 1 2.33881 7.6085 11.7483
77 1 2.19539 6.25435 11.3513
107 1 2.10108 8.97991 9.88937
89 1 1.51542 10.6818 0.62067
84 1 1.22548 10.4916 2.04351
96 1 0.97357 10.9212 5.49833
21 1 1.65777 12.0533 5.05189
83 1 2.18369 10.2049 3.0405
109 1 0.26747 9.07341 8.31483
80 1 0.864586 9.53678 12.1442
3 1 5.37697 1.3377 1.97497
1 1 3.79482 1.02065 1.69165
5 1 2.94458 2.20828 1.94571
16 1 4.06068 -0.0155282 5.2439
18 1 3.59239 1.45593 6.13379
10 1 4.7106 2.15403 6.67391
9 1 5.56321 2.91189 7.47092
24 1 5.61745 2.65907 8.96661
25 1 3.26278 1.96265 9.72963
48 1 4.31538 4.772 0.4936
44 1 5.52636 5.14522 2.46264
46 1 4.34633 4.48878 1.83808
8 1 3.56566 3.43782 2.47293
58 1 5.87511 4.54771 5.5813
56 1 4.84392 5.77881 5.46733
51 1 3.34357 5.68426 5.93513
70 1 3.10787 4.98278 8.50835
57 1 3.01917 4.62527 7.03606
78 1 5.10853 4.648 11.7881
68 1 4.2977 4.44351 9.50551
69 1 5.02802 5.29312 10.5117
37 1 5.94147 3.49144 11.7986
27 1 4.35666 2.90067 9.5049
47 1 5.04798 7.95838 2.05946
82 1 4.84515 9.1034 1.09424
49 1 5.81654 6.64343 2.07903
55 1 5.77007 7.02418 5.51969
92 1 5.0502 8.69622 3.33977
73 1 4.12697 7.63724 8.41194
62 1 5.55242 7.3196 7.93937
61 1 5.70296 7.92418 6.64481
65 1 2.89311 6.59466 8.62206
102 1 4.29432 8.88399 9.01263
72 1 5.59888 6.56649 10.2736
81 1 5.55196 7.74938 10.9264
88 1 3.49611 12.0476 1.9916
90 1 3.48015 9.41343 0.615358
85 1 2.88335 10.7119 0.0732125
91 1 5.91859 9.95894 0.744387
97 1 5.5987 10.3615 5.08247
94 1 5.24931 11.7623 5.10427
95 1 5.73304 9.90138 3.81769
20 1 2.95564 11.8564 4.50143
87 1 3.01253 11.4256 3.08418
93 1 5.68167 9.69024 6.28985
100 1 5.46339 10.4424 7.52968
106 1 5.02072 11.8244 8.20375
101 1 5.44722 9.59484 8.71371
33 1 3.75179 12.1382 8.86689
98 1 3.51411 11.1093 10.0502
99 1 3.40691 9.66613 9.79059
103 1 3.33866 11.5417 11.4176
114 1 9.00766 1.62881 0.00754704
15 1 6.45408 0.120588 5.16425
19 1 6.35024 1.38542 4.36501
123 1 8.76401 0.647459 5.22229
121 1 7.7828 -0.1562 5.68198
2 1 6.07762 1.59 3.02189
26 1 6.13789 0.188455 8.94317
129 1 8.46018 0.190377 9.48787
130 1 8.21864 2.4896 11.551
137 1 7.12462 0.620942 9.61699
134 1 6.98346 2.87916 11.0495
147 1 7.84338 4.73563 2.24828
141 1 6.69323 4.57384 3.0763
150 1 8.14513 3.6612 4.8163
156 1 6.85312 4.2921 4.42734
151 1 8.53252 5.25526 7.11391
166 1 7.54377 4.41036 7.64035
23 1 6.44789 3.89285 6.86686
167 1 7.61118 4.02807 9.08335
165 1 8.55656 4.608 9.88772
35 1 6.79045 3.00852 9.64419
171 1 7.79052 8.5275 1.3332
140 1 7.48193 7.74154 0.208704
142 1 8.21569 7.68947 2.56871
145 1 6.71175 6.66233 0.762864
144 1 7.03643 7.21957 3.16881
148 1 6.94083 6.97772 4.77084
154 1 8.26883 7.23464 5.52003
153 1 8.31048 6.70696 6.79687
162 1 8.73143 7.61948 7.77702
184 1 8.50707 9.07222 7.74462
159 1 9.20712 7.13218 9.2119
188 1 7.89081 8.27589 11.189
160 1 7.78566 7.27933 9.89659
74 1 6.5498 6.89249 8.99958
110 1 6.56977 9.05634 10.8952
169 1 7.03196 9.7255 1.64471
174 1 8.03562 11.0474 3.32548
170 1 6.94176 10.303 2.9238
177 1 8.58338 9.74634 6.42538
178 1 8.38802 11.2588 6.54198
180 1 8.02781 10.0194 8.80052
181 1 8.61354 11.3309 8.78472
104 1 6.7413 9.66145 9.46187
86 1 6.31322 10.1849 11.8398
191 1 9.08354 9.45129 11.2282
115 1 10.6436 1.52833 2.1839
112 1 9.99529 1.57173 0.97189
116 1 11.9279 1.01515 2.73445
111 1 10.0254 1.99782 3.40299
126 1 10.8952 0.0924105 4.6607
120 1 9.92904 1.11113 4.68253
127 1 10.1534 0.343596 7.91357
189 1 11.5507 0.12444 7.48395
135 1 10.0932 2.34603 9.78763
131 1 9.61784 1.13073 9.0354
119 1 10.0496 4.67237 0.983579
117 1 11.3244 4.43498 1.77051
139 1 9.14794 5.45543 1.89307
146 1 10.9343 4.55131 3.22702
124 1 9.60528 3.61564 5.03054
128 1 10.1098 3.40069 3.74484
157 1 11.1067 5.79533 3.97973
161 1 10.5037 4.96107 8.53537
155 1 9.90073 4.81003 7.22297
125 1 10.5287 3.89024 6.33152
122 1 11.9252 3.479 6.38852
133 1 11.6364 4.18479 9.13093
163 1 9.53828 5.57203 9.41507
113 1 9.94037 4.09003 12.0035
136 1 9.29227 3.45219 10.8689
132 1 11.4708 2.90841 9.8776
168 1 11.5628 7.76695 0.742161
143 1 9.2578 6.69236 2.58806
149 1 9.38266 7.75301 4.83997
138 1 9.97297 6.75731 3.84676
152 1 11.5296 7.44638 6.58269
158 1 11.0437 7.29914 10.7275
164 1 10.3773 7.80992 9.49771
79 1 11.0675 7.19999 11.9955
172 1 10.0854 10.1939 4.54817
173 1 11.0342 11.1578 5.03753
179 1 9.35514 10.7931 3.51475
175 1 9.4571 9.12883 5.3159
182 1 11.5938 9.93609 8.31129
186 1 11.7751 11.04 7.40454
185 1 9.24983 11.7124 7.57991
176 1 12.1395 10.9075 5.90496
187 1 10.1843 10.0173 10.3927
190 1 11.1672 11.1092 10.746
183 1 10.6005 9.27667 9.13679
105 1 12.1154 12.0247 10.2469
ITEM: TIMESTEP
4000
ITEM: NUMBER OF ATOMS
191
ITEM: BOX BOUNDS pp pp pp
-1.4168760292929897e-01 1.2141687602929290e+01
-1.4168760292929897e-01 1.2141687602929290e+01
-1.4168760292929897e-01 1.2141687602929290e+01
ITEM: ATOMS id type x y z
116 1 -0.183232 1.05867 2.5772
4 1 1.68257 2.71394 1.51302
12 1 1.16325 0.538862 4.77594
118 1 0.105444 0.616213 3.89825
31 1 2.6138 0.781407 8.60574
32 1 1.09709 0.641787 8.47139
11 1 0.404645 0.784146 7.27911
13 1 1.1129 1.31155 6.10302
17 1 2.3726 2.06898 6.08708
28 1 0.450841 0.776532 9.7287
38 1 2.5198 1.79015 10.7609
30 1 1.33827 2.70082 10.8595
29 1 0.16976 2.20448 10.1899
7 1 0.346108 4.78437 1.60456
6 1 1.03428 3.78596 0.774405
45 1 1.12635 5.61536 2.33611
14 1 2.13208 3.51442 6.44632
22 1 0.802767 3.8644 7.01435
63 1 0.734238 4.73176 8.43837
34 1 1.38591 3.83795 11.6792
64 1 1.7163 4.94378 10.891
66 1 1.79182 4.75239 9.49844
39 1 0.12451 8.44163 0.793208
43 1 2.46977 7.98153 0.511577
42 1 1.39236 7.99952 1.4317
41 1 1.46195 7.96842 2.90019
54 1 2.56509 6.66528 5.11996
50 1 2.24377 8.84187 3.60644
52 1 1.21332 6.35897 5.53888
53 1 0.203456 6.35037 4.3219
40 1 0.898087 6.66872 3.13603
60 1 2.90427 8.05444 4.66673
108 1 1.34291 8.48231 8.72493
67 1 1.82231 7.20763 8.30912
59 1 0.367213 6.44456 6.64196
109 1 0.275347 8.92032 7.94794
71 1 0.925509 6.19755 7.87307
75 1 1.26709 8.7417 11.0465
76 1 2.04237 7.52481 11.4816
77 1 2.17874 6.18034 11.3711
89 1 1.51433 10.3572 0.585285
84 1 1.33372 10.5474 1.9383
85 1 2.78721 10.5044 0.0229866
96 1 1.06807 10.6441 5.64307
21 1 1.83439 11.6492 5.08819
83 1 2.25449 10.0936 2.95557
80 1 0.630193 9.51873 12.1993
107 1 1.85783 9.22019 9.87661
3 1 5.22846 1.79079 2.46549
1 1 3.78942 1.4711 2.1491
5 1 2.97456 2.60643 2.01174
88 1 3.40557 0.175272 2.54088
16 1 4.08701 0.139764 5.52767
10 1 4.76471 2.30514 6.52101
24 1 5.56266 2.88411 8.68734
26 1 5.8182 0.0575743 8.66083
18 1 3.76609 1.47437 5.982
25 1 3.14347 1.96318 9.45105
27 1 4.19373 3.0225 9.17027
36 1 2.87214 0.684207 11.6032
37 1 5.56778 2.76165 11.5303
48 1 5.01036 4.93844 0.301974
44 1 5.75606 5.6536 2.4059
46 1 4.71075 4.86611 1.73627
8 1 3.76264 3.82372 1.98292
56 1 5.11175 5.7518 5.39403
51 1 3.69208 5.67754 5.4882
58 1 6.07793 4.7129 5.41275
57 1 3.07039 4.44928 5.88405
70 1 3.11443 5.21447 8.92974
9 1 5.37453 3.26206 7.3472
78 1 5.07702 3.99645 11.5636
68 1 4.12826 4.49328 9.48927
69 1 5.12384 4.86536 10.41
47 1 4.81658 8.10357 2.30586
49 1 6.01198 7.06946 2.17905
81 1 5.72895 6.35509 -0.298734
55 1 5.85142 7.04694 5.55376
92 1 4.90503 8.91026 3.56287
61 1 5.76798 7.92876 6.90353
62 1 5.63232 7.21002 8.28437
73 1 4.32557 7.4086 8.74474
65 1 3.11617 6.67848 8.63648
102 1 4.23906 8.78415 9.33242
72 1 5.64319 6.21105 10.6869
91 1 5.88591 9.66543 0.905357
90 1 3.53153 9.12518 0.533665
82 1 4.64104 8.89053 1.22768
97 1 5.50053 10.3782 5.3568
94 1 5.32456 11.7974 5.32586
95 1 5.79414 9.73641 4.16383
87 1 3.14932 11.3409 3.37819
20 1 3.14623 11.5798 4.79615
93 1 5.40762 9.57569 6.70665
100 1 5.08992 10.2729 7.89645
106 1 4.76942 11.6113 8.08477
33 1 3.46553 11.8388 8.78081
101 1 5.37842 9.58064 9.0174
98 1 3.37157 11.0456 9.96213
103 1 3.20288 11.5065 11.3332
99 1 3.15231 9.69969 9.64661
114 1 9.02166 1.9998 0.15973
15 1 6.56635 0.290264 5.38853
19 1 6.42057 1.49651 4.58785
2 1 6.28779 1.67668 3.30186
123 1 8.81841 0.86334 4.99132
121 1 7.94596 -0.131649 5.50781
129 1 8.31892 0.09337 9.42146
134 1 6.79616 2.62046 10.8765
130 1 8.18968 2.7581 11.4153
137 1 6.93949 0.317815 9.33931
147 1 7.97779 4.93235 2.25576
141 1 6.81232 4.84477 3.02652
150 1 8.25006 3.99686 4.80847
156 1 6.98555 4.36786 4.38627
151 1 8.48288 5.1335 6.99006
166 1 7.44663 4.43032 7.61005
23 1 6.32218 4.12408 6.81609
167 1 7.60277 3.94397 8.92436
165 1 8.43985 4.62626 9.98424
136 1 8.90021 4.07608 11.2479
35 1 6.81606 2.84515 9.43415
171 1 7.91544 8.76475 1.5241
140 1 7.55206 8.0947 0.13655
142 1 8.49069 7.89407 2.59478
145 1 6.36108 7.03774 0.718711
144 1 7.09905 7.38532 3.31297
148 1 7.03314 7.20402 4.7237
154 1 8.18961 7.02466 5.41163
153 1 8.26567 6.49002 6.66489
162 1 8.55541 7.4212 7.63519
184 1 8.46721 8.99729 7.51069
188 1 8.00615 8.62187 11.1246
160 1 7.90054 7.56728 10.1526
74 1 6.4021 6.96439 9.75554
159 1 9.12681 7.06177 9.06574
169 1 6.9329 9.63198 1.80863
174 1 7.85619 11.0233 3.42532
170 1 6.6731 10.2884 3.21979
177 1 8.80368 9.59435 6.16522
178 1 8.43713 11.1332 6.27878
180 1 7.9853 9.82314 8.60878
181 1 8.52061 11.1847 8.72964
104 1 6.7584 9.60275 9.43286
110 1 6.99868 9.77275 10.7998
86 1 6.18287 10.1194 11.9117
115 1 10.8829 1.63577 2.22892
112 1 10.0306 1.5028 1.11398
111 1 10.1175 2.06765 3.41794
120 1 9.94492 1.05454 4.32348
126 1 11.1927 0.176558 4.55819
127 1 10.0459 0.309149 7.80027
131 1 9.50043 0.925405 9.02591
189 1 11.3694 -0.0640553 7.34121
135 1 10.1823 2.0312 9.51529
132 1 11.2638 2.86899 9.59705
119 1 10.1752 4.83391 1.23845
117 1 11.3924 4.69571 1.99728
139 1 9.18049 5.56548 1.86201
146 1 11.0514 4.54705 3.39843
124 1 9.58555 3.70992 5.03496
128 1 10.2985 3.42085 3.85733
157 1 11.1923 5.89699 4.00229
161 1 10.3435 4.88166 8.52725
155 1 9.76883 4.57947 7.20076
125 1 10.3602 3.77602 6.17049
122 1 11.7551 3.65827 6.30824
133 1 11.5808 4.25038 9.11384
163 1 9.411 5.53416 9.37162
113 1 9.93723 4.31871 12.1995
168 1 11.3555 7.51458 0.793149
143 1 9.44667 6.88851 2.52205
149 1 9.37791 7.57704 4.92458
138 1 10.0467 6.81508 3.84548
175 1 9.48991 9.0141 5.16154
152 1 11.3383 7.02254 6.91907
158 1 10.8979 7.21223 10.7996
164 1 10.3431 7.83369 9.56321
79 1 10.6394 7.11449 12.1132
172 1 10.0126 10.1402 4.34992
173 1 10.952 11.0339 4.89481
179 1 9.22216 10.7601 3.42405
176 1 11.9876 10.5347 5.83199
182 1 11.4163 9.66413 8.17764
186 1 11.5611 10.7043 7.27947
185 1 9.07794 11.5857 7.55116
187 1 10.2293 10.056 10.3637
190 1 10.9505 11.2548 10.9044
183 1 10.5461 9.24324 9.25729
191 1 9.30742 9.36095 11.2217
105 1 11.9944 12.0998 10.6794
ITEM: TIMESTEP
5000
ITEM: NUMBER OF ATOMS
191
ITEM: BOX BOUNDS pp pp pp
-1.2246795865797368e-01 1.2122467958657976e+01
-1.2246795865797368e-01 1.2122467958657976e+01
-1.2246795865797368e-01 1.2122467958657976e+01
ITEM: ATOMS id type x y z
4 1 2.2146 2.76987 1.46282
12 1 1.05493 0.487336 4.88575
118 1 -0.0226709 0.642163 3.89186
31 1 2.94062 0.782538 8.75635
32 1 1.4502 0.805911 8.56854
11 1 0.636549 0.579782 7.26766
17 1 2.41214 2.06859 6.05077
13 1 1.20565 1.17766 6.08559
28 1 0.5547 0.801115 9.6478
38 1 2.61925 1.85956 10.7569
30 1 1.46726 2.60692 10.9634
29 1 0.389599 2.11223 10.1941
36 1 2.91793 0.574113 11.532
7 1 0.438636 4.5373 1.57803
6 1 1.33079 3.67093 0.848987
45 1 1.31671 5.47682 2.30684
14 1 2.15139 3.49202 5.88059
22 1 0.819389 3.867 5.79094
63 1 0.617941 4.96286 8.88901
34 1 1.39346 3.85166 11.7048
64 1 1.6456 5.01306 10.9794
66 1 1.77563 4.84723 9.59781
39 1 0.0725947 8.30539 0.776702
43 1 2.33675 7.93743 0.647461
42 1 1.17602 7.9004 1.60534
54 1 2.36391 6.9158 5.46929
50 1 2.15024 8.74298 3.71196
52 1 0.885373 6.63797 5.51165
53 1 0.188958 6.30212 4.28626
40 1 1.12986 6.44049 3.2715
60 1 2.4697 8.27202 4.88935
41 1 1.38826 7.82871 2.92375
108 1 1.47234 8.4285 8.60425
67 1 1.88833 7.05649 8.41337
59 1 0.15079 6.46229 6.58208
109 1 0.324574 8.81266 8.02332
71 1 0.819167 6.06248 7.91225
75 1 1.19653 8.76914 11.016
76 1 1.77294 7.59728 11.6273
77 1 1.31609 6.22509 11.3425
89 1 1.31554 10.3112 0.635465
84 1 1.32524 10.2811 2.07769
85 1 2.69622 10.3217 0.108104
83 1 2.37263 10.0748 2.93412
80 1 0.395629 9.38051 -0.158212
96 1 1.15733 10.4264 5.55769
21 1 1.87629 11.5904 5.05531
107 1 1.73263 9.2156 9.76941
3 1 5.73313 1.3773 1.86219
1 1 4.23497 1.23557 1.91506
5 1 3.49998 2.49076 1.97002
88 1 3.76141 -0.144607 2.24397
16 1 4.33909 0.14839 5.47767
10 1 4.78666 2.38195 6.5207
24 1 5.52985 2.71396 8.6859
26 1 5.92813 0.123432 8.38676
18 1 3.88031 1.43468 6.07845
25 1 3.18723 1.9662 9.45283
27 1 4.23505 2.8911 9.3037
48 1 5.04883 5.18081 0.252339
8 1 4.17177 3.72737 2.19325
46 1 4.86569 4.84657 1.59363
44 1 5.58056 5.56224 2.49765
57 1 3.03032 4.51662 5.80656
58 1 5.73874 4.83426 5.66095
9 1 5.49728 3.12831 7.3018
78 1 5.02678 4.14028 11.5809
68 1 4.28333 4.31797 9.3982
69 1 5.1261 4.81182 10.2568
70 1 3.07904 5.15899 9.15499
37 1 5.76744 2.93737 11.724
47 1 4.76666 8.11596 2.46239
82 1 4.6632 8.89935 1.09573
90 1 3.37171 8.90424 0.58224
49 1 5.79253 7.07135 2.33009
55 1 5.65966 7.29049 5.58606
92 1 4.78264 9.01425 3.65828
56 1 4.9592 6.0223 5.70908
51 1 3.51074 6.02252 5.54538
61 1 5.61939 8.00928 6.78747
62 1 5.72817 7.52197 8.35749
73 1 4.3086 7.58422 8.94965
65 1 3.15976 6.63873 8.70995
102 1 4.20435 8.87278 9.50052
72 1 5.75583 6.22187 10.5389
81 1 5.81714 6.30227 12.0822
91 1 5.63323 9.91758 0.752761
97 1 5.80134 10.3455 5.4279
94 1 5.67081 11.8524 5.51984
95 1 5.85235 9.88289 4.12192
87 1 3.29064 11.1998 3.1981
20 1 3.35527 11.6643 4.75535
93 1 5.45855 9.62689 6.55845
100 1 5.06594 10.3095 7.75911
106 1 4.78675 11.6627 8.2147
101 1 5.31953 9.61823 9.01777
98 1 3.31141 11.036 10.0973
99 1 3.08383 9.69634 9.73928
103 1 2.99084 11.4361 11.4716
33 1 3.72767 11.9792 9.04856
114 1 8.92606 1.98265 0.220612
2 1 6.69993 1.46469 2.78549
15 1 6.83912 0.29878 5.02831
19 1 6.88382 1.31397 4.14954
123 1 9.08078 0.971233 5.47501
129 1 8.3189 0.325596 9.33888
134 1 6.83154 2.71685 10.9266
130 1 8.14895 2.74244 11.4901
35 1 6.61965 2.95771 9.52715
137 1 6.87016 0.529676 9.27115
147 1 7.87606 4.76459 2.52189
139 1 8.92556 5.57531 2.06677
141 1 6.60182 4.86244 3.21882
150 1 7.9853 4.00426 4.94852
156 1 6.70229 4.48067 4.6155
151 1 8.54062 5.27137 7.19515
166 1 7.35229 4.61461 7.81221
23 1 6.16005 4.32361 7.00253
167 1 7.60632 3.82753 9.02703
165 1 8.48029 4.57697 9.95194
136 1 8.79784 3.91037 11.2164
171 1 7.82965 8.91153 1.47716
140 1 7.473 8.08049 0.400623
142 1 8.05811 7.95071 2.58994
145 1 6.45993 7.12535 0.73985
144 1 6.88823 7.59202 3.32109
148 1 6.80596 7.31876 4.79088
154 1 8.10782 6.97937 5.39402
153 1 8.23722 6.58475 6.77872
162 1 8.54708 7.57857 7.80686
184 1 8.37368 9.013 7.54115
188 1 7.78919 8.67127 11.3045
160 1 7.88557 7.51277 9.94516
74 1 6.5545 6.97211 9.45577
159 1 9.01189 7.01926 9.20011
169 1 6.79184 9.86256 1.71621
174 1 8.01852 10.9376 3.31731
170 1 6.78832 10.1924 3.19699
121 1 8.19119 12.1451 5.50104
177 1 8.88272 9.68684 6.29408
178 1 8.78997 11.1057 6.28696
180 1 7.88808 9.9871 8.61114
181 1 8.41744 11.2352 8.63751
104 1 6.71422 9.56415 9.37508
110 1 6.82221 9.61109 10.7641
86 1 6.02821 10.302 11.6848
115 1 10.6985 1.63407 2.24915
112 1 9.9074 1.45951 0.978335
116 1 12.0239 1.25535 2.55593
111 1 10.1184 2.13221 3.52663
120 1 10.0175 1.15269 4.46693
126 1 10.9766 0.0337629 4.41464
127 1 10.292 0.166575 7.91981
131 1 9.73514 0.908804 9.03561
135 1 10.3295 2.03251 9.61894
132 1 11.5827 2.76654 9.59802
119 1 9.90603 4.69236 1.34521
117 1 11.2887 4.53336 1.99926
113 1 9.65669 4.42796 -0.0485939
146 1 11.0863 4.56196 3.374
124 1 9.41629 3.89678 5.02832
128 1 10.1501 3.51696 3.84275
157 1 11.1603 5.92125 4.05001
122 1 11.6482 3.98551 5.98567
161 1 10.4623 5.05253 8.56512
155 1 9.77659 4.73303 7.2585
133 1 11.631 4.28292 9.04318
125 1 10.2812 4.10054 6.15488
163 1 9.37837 5.61995 9.35687
168 1 11.249 7.43817 0.731558
143 1 9.17924 6.85816 2.66317
149 1 9.29231 7.60181 4.83624
138 1 10.0801 6.8164 3.87032
175 1 9.56471 8.98008 5.17517
152 1 11.0986 6.91431 6.73594
158 1 10.8332 7.16778 10.6465
164 1 10.2648 7.71515 9.49945
79 1 10.5697 6.92784 11.8924
183 1 10.5806 9.11529 9.20608
172 1 10.2104 9.86902 4.26235
173 1 11.1249 10.8472 4.78567
179 1 9.30062 10.5467 3.22489
176 1 12.0505 10.4681 5.81966
182 1 11.3329 9.61537 8.10862
186 1 11.5934 10.7271 7.14083
185 1 9.27655 11.5802 7.47973
189 1 11.6366 12.0926 7.49381
187 1 10.3111 9.91993 10.389
190 1 10.9318 11.205 10.6541
105 1 12.0154 11.9225 10.2089
191 1 9.15573 9.44556 11.278
ITEM: TIMESTEP
6000
ITEM: NUMBER OF ATOMS
191
ITEM: BOX BOUNDS pp pp pp
-1.7294217750583532e-01 1.2172942177505821e+01
-1.7294217750583532e-01 1.2172942177505821e+01
-1.7294217750583532e-01 1.2172942177505821e+01
ITEM: ATOMS id type x y z
4 1 1.96765 2.71298 1.60905
12 1 1.02127 0.18227 5.07878
118 1 -0.0322372 0.505766 4.10117
31 1 2.7395 0.836601 8.68781
32 1 1.27604 0.612991 8.65087
11 1 0.577623 0.487045 7.4779
13 1 1.30997 0.966324 6.21553
17 1 2.35649 1.91929 6.05534
28 1 0.476279 0.844326 9.80725
38 1 2.68569 1.76137 10.7856
30 1 1.3899 2.46124 11.0442
29 1 0.268822 2.17464 10.1707
7 1 0.333187 4.39755 1.65488
6 1 1.08718 3.50661 0.897414
45 1 1.2078 5.30773 2.38473
14 1 1.86759 3.3348 5.91356
57 1 2.65133 4.6182 5.94949
22 1 0.439711 3.41798 5.62278