ITEM: TIMESTEP
1000
ITEM: NUMBER OF ATOMS
191
ITEM: BOX BOUNDS pp pp pp
0.0000000000000000e+00 1.2000000000000000e+01
0.0000000000000000e+00 1.2000000000000000e+01
0.0000000000000000e+00 1.2000000000000000e+01
ITEM: ATOMS id type x y z
12 1 1.20509 0.848646 4.8824
1 1 2.45416 2.21262 3.44646
118 1 0.0568909 0.931156 4.21542
31 1 2.7963 1.20012 8.59879
32 1 1.33362 1.11411 8.47168
11 1 0.524598 1.20419 7.34151
17 1 2.71238 2.40746 6.16634
13 1 1.38231 1.67759 6.10224
28 1 0.600435 1.06936 9.68613
29 1 0.380463 2.49177 10.0643
30 1 1.54051 2.88833 10.6729
38 1 2.76966 2.1392 10.5977
4 1 2.18611 3.42645 1.49308
6 1 1.37529 4.1638 0.681185
7 1 0.316389 4.7799 1.23673
5 1 2.72351 3.38718 2.80547
53 1 0.358511 5.83537 4.1516
14 1 2.48962 3.77126 6.47623
22 1 1.04066 4.12647 6.92577
63 1 0.861504 4.89394 8.19573
34 1 1.60511 4.1806 11.3394
64 1 1.84804 5.17285 10.4568
66 1 1.97643 4.87993 9.13738
39 1 0.181589 8.50532 0.712513
43 1 2.65505 8.15867 0.868042
42 1 1.41328 7.99508 1.5577
45 1 0.410238 6.0196 1.6437
40 1 0.607622 6.50916 2.98891
41 1 1.37971 7.70322 2.91852
54 1 2.3679 6.52629 5.21292
50 1 2.14686 8.46843 3.69532
52 1 1.04645 6.21113 5.25484
60 1 2.43505 7.90596 4.88676
59 1 0.319578 6.54721 6.41356
67 1 1.82448 7.31926 8.10585
71 1 0.824954 6.39916 7.65354
108 1 1.50378 8.72625 8.5489
75 1 1.63839 8.73584 10.9
76 1 2.39605 7.75422 11.4558
77 1 2.36185 6.3648 11.1126
89 1 1.68557 10.4378 0.778156
84 1 1.26087 10.293 2.26055
96 1 1.39937 10.5244 5.80047
21 1 1.92503 11.6793 5.0829
83 1 1.97272 9.86486 3.45811
109 1 0.460584 9.13924 7.92927
107 1 1.96788 9.23301 9.68906
80 1 0.964113 9.47731 11.8748
3 1 3.46182 1.23958 3.5408
16 1 4.12741 0.164967 5.50129
2 1 4.94593 1.47411 3.18049
9 1 5.79569 2.82726 7.153
24 1 5.70492 2.43076 8.65892
26 1 5.83625 0.933983 8.58776
10 1 5.33926 2.06308 6.16372
18 1 3.95423 1.52412 6.0336
25 1 3.47206 2.22466 9.36298
36 1 3.1563 1.05003 11.3995
48 1 4.33373 4.65548 0.709691
44 1 5.99016 5.22315 2.44868
46 1 4.83482 4.57961 2.03733
8 1 3.91788 4.06314 2.96916
58 1 5.89245 4.77236 5.62939
56 1 5.05263 5.94244 5.47293
51 1 3.61934 5.79543 5.77172
70 1 3.40603 5.25056 8.37877
57 1 3.29911 4.88631 6.83742
78 1 5.12797 4.29346 11.5245
68 1 4.40579 4.42649 9.42396
69 1 5.059 5.21573 10.3426
27 1 4.47806 3.0505 9.22505
47 1 5.19546 7.94796 2.43487
82 1 4.90455 8.78538 1.39948
92 1 5.0144 8.61295 3.70179
55 1 5.95341 7.18716 5.53858
73 1 4.19161 7.74413 8.55678
62 1 5.53684 7.49362 7.95057
65 1 3.19209 6.8109 8.4114
61 1 5.63671 8.06901 6.60218
72 1 5.55993 6.5066 10.3029
81 1 5.54413 7.76087 11.0694
88 1 3.49987 11.0428 2.1632
85 1 3.16455 10.4098 1.00517
91 1 5.91697 9.71594 1.04399
90 1 3.67653 9.11918 1.0001
94 1 5.51007 11.7138 5.47563
97 1 5.54044 10.2859 5.25334
87 1 3.11333 10.7168 3.43176
20 1 3.18504 11.8843 4.2963
95 1 5.89847 9.73487 4.04418
93 1 5.64775 9.60237 6.45837
100 1 5.39615 10.4731 7.59658
101 1 5.51693 9.71445 8.84227
106 1 4.93343 11.8978 7.96221
33 1 3.59975 11.9983 8.55921
98 1 3.50555 11.1841 9.68144
103 1 3.22428 11.7935 10.9441
99 1 3.27887 9.79207 9.59418
102 1 4.32834 9.07969 9.01661
114 1 8.60925 1.0636 0.341457
15 1 6.28686 1.03729 5.36838
19 1 6.14573 1.31933 3.9212
121 1 7.76238 0.614062 5.91285
128 1 8.88866 2.97665 3.70562
129 1 8.35478 0.18746 9.37563
130 1 8.26103 2.13424 11.4211
137 1 7.02759 0.504277 9.32774
134 1 6.96563 2.54662 10.8961
35 1 6.87822 2.8466 9.43909
147 1 8.12484 3.78741 2.81579
139 1 8.95702 4.71955 2.11283
141 1 6.86754 4.534 3.29409
150 1 8.14886 4.52859 5.47536
156 1 6.87198 4.6036 4.71775
151 1 8.27125 5.07366 6.80782
166 1 7.22697 4.60737 7.64401
23 1 6.11789 4.13615 6.99852
167 1 7.57641 4.01855 8.90824
165 1 8.33637 4.89564 9.7276
37 1 6.09022 3.28999 11.648
49 1 6.32647 6.66491 2.15676
140 1 7.99375 7.68454 0.383597
142 1 8.58072 7.38481 2.5869
145 1 6.96274 6.67636 0.681379
171 1 8.11027 8.45739 1.63405
144 1 7.31434 7.04926 3.2988
148 1 7.18411 7.1601 4.73754
154 1 8.35935 7.1502 5.53352
153 1 8.1698 6.55922 6.73473
162 1 8.58165 7.49694 7.74916
184 1 8.14193 8.93666 7.51019
188 1 7.99517 8.26872 11.0671
74 1 6.48352 6.90777 9.14608
160 1 7.81743 7.2395 9.89896
169 1 7.09657 9.53003 1.87342
174 1 7.97704 10.9841 3.56656
170 1 6.93637 10.1165 3.21665
177 1 8.34338 9.55504 6.12299
178 1 8.10362 11.1346 6.34415
180 1 7.89147 9.70405 8.60484
181 1 8.60636 10.9521 8.71045
185 1 8.91145 11.4014 7.40967
104 1 6.73251 9.58153 9.41521
110 1 6.49943 9.08283 10.8292
86 1 6.07477 10.1283 11.7812
115 1 10.3233 1.23323 2.44296
116 1 11.6482 0.993539 2.82226
112 1 9.70433 1.22206 1.2498
111 1 9.4857 1.66562 3.53701
126 1 10.9251 0.207048 4.75638
120 1 9.76984 1.11383 4.82804
123 1 9.07273 1.35593 5.95414
127 1 9.85358 0.871564 7.35898
189 1 11.3665 0.497339 7.24559
131 1 9.26943 1.27343 8.8753
135 1 9.92736 2.45712 9.72437
136 1 9.31994 2.91918 10.9834
105 1 11.8296 0.0101488 10.1355
119 1 10.0568 4.12402 1.1601
117 1 11.2913 4.10232 1.87838
157 1 11.3328 4.9189 4.17809
124 1 9.18021 3.70881 5.01453
146 1 11.3855 3.97031 3.30822
138 1 10.2186 5.74187 3.89366
161 1 10.2777 4.94223 8.31128
155 1 9.72347 4.77316 7.05922
133 1 11.4486 4.36918 8.8939
122 1 11.7791 3.7662 6.22739
125 1 10.4313 4.01175 6.05778
163 1 9.44619 5.61201 9.18789
113 1 9.86272 3.82653 11.855
132 1 11.2015 3.12199 9.46298
143 1 9.41135 6.11047 2.82495
168 1 11.139 7.60473 0.563201
149 1 9.69535 7.6531 5.41856
152 1 10.827 7.13612 6.19421
159 1 9.168 7.09184 8.9772
158 1 11.2905 7.02504 10.2119
164 1 10.4181 7.84684 9.49228
79 1 11.2299 6.74242 11.5198
172 1 10.0074 10.0659 4.56232
173 1 11.0291 10.7553 5.07982
175 1 9.42791 9.05859 5.30838
179 1 9.28849 10.6904 3.58403
182 1 11.2861 9.8532 8.11419
186 1 11.4828 11.032 7.29613
176 1 11.9937 10.5963 6.03074
187 1 10.2157 9.88624 10.5578
190 1 10.9942 11.1135 10.7664
183 1 10.5117 9.3033 9.2034
191 1 9.03 9.33326 11.045
ITEM: TIMESTEP
2000
ITEM: NUMBER OF ATOMS
191
ITEM: BOX BOUNDS pp pp pp
-1.1159052190324947e-01 1.2111590521903247e+01
-1.1159052190324947e-01 1.2111590521903247e+01
-1.1159052190324947e-01 1.2111590521903247e+01
ITEM: ATOMS id type x y z
4 1 1.92594 2.90724 1.23075
12 1 1.27428 0.491098 4.95429
118 1 0.263012 0.396468 3.97579
31 1 2.65246 1.02156 8.73457
32 1 1.25234 0.723032 8.63671
11 1 0.61733 0.790619 7.37281
17 1 2.55608 2.07938 6.25102
13 1 1.35489 1.27936 6.25008
28 1 0.206295 0.865094 9.66309
38 1 2.57176 2.0383 10.834
30 1 1.33953 2.64711 11.078
29 1 0.186935 2.35594 10.2156
7 1 0.525226 4.71042 1.60808
6 1 1.00413 3.77194 0.713157
45 1 1.35002 5.62147 2.20386
14 1 2.27376 3.56042 6.61198
22 1 0.881782 3.89181 6.88834
63 1 0.7718 4.75747 8.39199
34 1 1.27148 3.99333 11.5747
64 1 1.8165 5.03504 10.7772
66 1 1.8737 4.80777 9.28086
39 1 0.177936 8.63607 0.82982
43 1 2.33367 8.06617 0.652814
42 1 1.29919 8.12319 1.68108
54 1 2.34201 6.63878 5.5428
50 1 1.92593 8.76584 3.85423
52 1 0.859747 6.40671 5.64023
53 1 0.179481 6.27686 4.30568
60 1 2.65305 8.02635 5.01693
40 1 1.02639 6.44773 3.20158
41 1 1.45576 7.84229 2.99473
108 1 1.38734 8.53957 8.73944
67 1 1.75859 7.22803 8.29556
59 1 0.20649 6.66408 6.76771
71 1 0.71358 6.41284 8.01939
77 1 2.23297 6.36991 11.1881
76 1 2.03092 7.72053 11.5787
75 1 1.44217 9.00041 11.108
89 1 0.942732 10.7483 0.888699
84 1 1.01681 10.698 2.23338
80 1 0.70276 9.62222 0.0933006
96 1 1.07539 10.5353 5.51807
21 1 2.04482 11.5386 5.00407
83 1 2.0791 10.2725 3.21844
109 1 0.319403 9.14012 8.17575
107 1 1.90254 9.14285 9.77636
3 1 4.69754 0.396842 1.81781
1 1 3.53519 1.36325 1.75859
5 1 2.99811 2.61358 2.14926
16 1 4.19435 -0.064469 5.3803
18 1 3.86796 1.33443 5.98963
9 1 5.88042 2.79084 7.31802
24 1 5.69094 2.35768 8.69267
10 1 5.10495 1.96457 6.4699
26 1 5.87961 0.919209 8.81938
25 1 3.16232 2.03825 9.53716
36 1 2.90905 0.796261 11.5384
48 1 4.08777 4.66754 0.61703
44 1 5.56335 5.21336 2.61123
46 1 4.50807 4.49469 1.99935
8 1 3.77091 3.61407 2.72228
56 1 5.03092 5.8736 5.78471
58 1 5.95308 4.60178 5.822
70 1 3.09556 5.22652 8.44449
57 1 3.00745 4.75148 6.95568
51 1 3.45897 5.82447 5.99155
78 1 4.911 4.59991 11.6175
68 1 4.20605 4.5419 9.27503
69 1 4.86543 5.18146 10.3844
37 1 5.78806 3.43222 11.6472
27 1 4.40492 3.02749 9.34162
47 1 4.9525 7.81745 2.28434
82 1 4.72077 8.71167 1.25637
92 1 4.73975 8.46539 3.57136
55 1 5.90458 7.16824 5.56799
73 1 4.19127 7.71127 8.63254
62 1 5.54464 7.46212 8.06734
61 1 5.67211 8.07876 6.7742
65 1 3.1472 6.71659 8.49697
72 1 5.48722 6.48282 10.1724
81 1 5.48849 7.81594 10.9579
102 1 4.22889 8.95973 9.14427
88 1 4.04011 11.2176 1.95992
85 1 3.42614 10.5873 0.702583
90 1 3.36472 9.13663 0.811758
91 1 5.7916 9.58709 1.0075
97 1 5.58344 10.3132 5.21787
94 1 5.4175 11.6919 5.29829
20 1 3.30579 11.7302 4.4304
95 1 5.74032 9.57901 3.98283
87 1 3.28636 10.9708 3.25485
93 1 5.34826 9.57037 6.47153
100 1 5.33952 10.5795 7.67258
101 1 5.51543 9.7404 8.82089
33 1 3.48514 11.9872 9.02471
106 1 4.83071 12.0182 8.29395
98 1 3.3838 11.0355 10.0572
103 1 3.43941 11.4084 11.5214
99 1 3.14889 9.69203 9.79547
86 1 6.06735 10.0968 11.938
114 1 8.78258 2.01282 0.494123
2 1 6.10157 0.710927 2.38599
15 1 6.64866 0.0932321 4.9774
19 1 6.69475 0.577125 3.68026
123 1 8.97391 1.14014 5.26463
121 1 8.03236 0.0855558 5.58325
129 1 8.24801 0.363224 9.4447
130 1 8.13343 2.49805 11.5916
137 1 6.78167 0.291863 9.88808
134 1 6.79109 2.64567 11.0754
147 1 7.83809 4.64879 2.38811
139 1 9.00536 5.3478 1.99554
141 1 6.64827 4.60895 3.27042
150 1 8.16699 3.76876 4.92071
156 1 6.9361 4.42623 4.72152
151 1 8.55675 5.31099 7.01604
166 1 7.50039 4.55521 7.7592
23 1 6.27143 4.11229 7.15255
167 1 7.63214 4.04962 9.19722
165 1 8.6295 4.42045 9.97838
35 1 6.78244 3.02183 9.52242
171 1 7.79843 8.50967 1.49191
140 1 7.55165 7.70816 0.239115
142 1 8.13617 7.5623 2.58277
145 1 6.66224 6.61113 0.692066
49 1 5.90371 6.57041 2.19753
144 1 7.03908 7.16493 3.37364
148 1 7.02348 7.01429 4.78321
154 1 8.29489 6.9396 5.34412
153 1 8.2964 6.62368 6.68186
162 1 8.55353 7.61295 7.67748
159 1 9.0556 7.13926 8.99232
184 1 8.42323 9.06557 7.39563
188 1 7.83299 8.3901 11.1132
160 1 7.63894 7.31356 9.71886
74 1 6.41948 6.94502 9.13965
169 1 6.84886 9.49582 1.80183
174 1 8.07328 10.8186 3.36666
170 1 6.83375 10.0568 3.10467
177 1 8.85756 9.75042 6.11818
178 1 8.7219 11.1306 6.31217
180 1 7.94031 9.80422 8.67037
181 1 8.41977 11.2717 8.59994
104 1 6.74157 9.63242 9.43138
110 1 6.55167 9.13221 10.8776
115 1 10.8905 1.62467 2.20089
112 1 9.87582 1.52478 1.13233
116 1 12.1839 0.985923 2.65114
111 1 10.273 2.10019 3.36565
126 1 11.094 0.186808 4.6982
120 1 10.1045 1.1385 4.45256
127 1 10.1664 0.662048 7.82878
189 1 11.533 0.262233 7.38961
131 1 9.37047 1.37596 9.00704
135 1 10.0143 2.49107 9.82199
119 1 10.0607 4.64141 1.08136
117 1 11.3151 4.52696 1.84859
157 1 11.1538 5.8427 3.83765
124 1 9.64966 3.75885 5.1169
146 1 11.0304 4.55839 3.29574
128 1 10.4087 3.39042 3.90444
161 1 10.4493 5.13574 8.46636
155 1 9.92024 4.91465 7.16917
122 1 11.8207 3.73422 6.35118
125 1 10.5138 4.21429 6.14063
133 1 11.5724 4.45587 9.00755
163 1 9.4117 5.52553 9.20192
136 1 9.17951 3.37845 10.8501
132 1 11.3397 3.08814 9.54821
113 1 9.75615 4.17439 12.1038
143 1 9.24612 6.51505 2.75136
168 1 11.2964 7.79483 0.646696
149 1 9.39563 7.62628 4.83013
138 1 10.0541 6.78968 3.82919
152 1 11.2382 7.4549 6.72611
158 1 11.2301 7.21576 10.2536
164 1 10.3463 7.95148 9.27214
79 1 11.1234 7.04419 11.6055
172 1 10.3262 10.1003 4.24607
173 1 11.0963 11.0593 4.94553
179 1 9.40388 10.5725 3.38342
176 1 11.9399 10.5032 5.87667
175 1 9.57224 9.10268 5.03328
182 1 11.5044 10.0141 8.29288
186 1 11.606 10.9189 7.22029
185 1 9.30997 11.669 7.50954
187 1 10.185 9.97772 10.3646
190 1 10.6551 11.2282 10.5107
191 1 9.02105 9.47394 11.0051
105 1 11.6487 12.1229 10.2885
183 1 10.5801 9.3358 9.10066
ITEM: TIMESTEP
3000
ITEM: NUMBER OF ATOMS
191
ITEM: BOX BOUNDS pp pp pp
-2.1845489184862316e-01 1.2218454891848625e+01
-2.1845489184862316e-01 1.2218454891848625e+01
-2.1845489184862316e-01 1.2218454891848625e+01
ITEM: ATOMS id type x y z
4 1 1.67315 2.94838 1.49177
12 1 1.18145 0.480548 5.01807
118 1 -0.0241886 0.74035 4.1278
31 1 2.69401 0.777667 8.7878
32 1 1.2549 0.637449 8.6152
11 1 0.60775 0.627426 7.35527
17 1 2.52558 2.09283 6.38039
13 1 1.33333 1.15103 6.21319
28 1 0.412381 0.735378 9.71451
38 1 2.52009 1.75927 10.8792
30 1 1.12543 2.59276 11.1196
29 1 0.0538729 2.13807 10.2476
36 1 2.81231 0.584882 11.6183
7 1 0.0740097 4.6286 1.42371
6 1 0.801847 3.65642 0.723177
45 1 0.938538 5.36609 2.14894
14 1 2.05491 3.72037 6.29236
63 1 0.379923 5.11009 8.83152
22 1 0.636395 3.78728 6.22127
34 1 1.08976 3.70971 11.7907
64 1 1.53325 5.0279 11.245
66 1 1.11912 5.30402 9.97399
39 1 0.444953 8.14694 0.740183
43 1 2.82754 8.1308 0.785958
42 1 1.73137 7.96987 1.61788
54 1 2.37488 6.78672 5.3759
50 1 2.06908 8.78219 3.81327
52 1 0.897292 6.21886 5.55868
53 1 0.0621944 6.04166 4.39557
40 1 0.941729 6.28818 3.25753
41 1 1.63104 7.5034 2.96046
108 1 1.3888 8.2595 8.93331
67 1 1.7899 7.03065 8.44132
59 1 0.156282 6.66027 6.73609
71 1 0.722168 6.28424 7.94784
77 1 1.90094 6.19734 11.8637
76 1 2.22897 7.5176 11.9705
75 1 1.47465 8.7186 11.2697
107 1 1.81348 8.99055 10.0539
89 1 0.774139 10.4495 0.771936
84 1 0.982499 10.6576 2.06041
80 1 0.607483 9.43618 -0.209162
96 1 0.881501 10.4883 5.36489
21 1 1.74452 11.6134 4.98347
83 1 1.85446 10.0646 3.05713
109 1 0.490006 9.09922 8.17656
3 1 4.50939 0.258791 2.02253
1 1 3.65239 1.45027 2.01897
2 1 5.79504 0.418629 2.60812
5 1 2.91995 2.61386 2.23557
16 1 3.89827 -0.0162945 5.34463
10 1 4.85004 2.09103 6.34895
24 1 5.58017 2.26977 8.57536
9 1 5.61876 3.02007 7.07872
26 1 5.64797 0.760465 8.49653
18 1 3.73692 1.3234 5.97709
25 1 3.16546 1.86087 9.57306
27 1 4.25877 2.82174 9.03963
48 1 3.98969 4.38785 0.312911
44 1 5.61882 5.32164 2.04248
46 1 4.48072 4.56269 1.69938
8 1 3.80667 3.83414 2.68817
58 1 5.84198 4.85201 5.31293
56 1 4.92307 5.9274 5.5817
51 1 3.47401 5.68808 5.75066
70 1 3.61847 5.23245 8.09613
57 1 3.0025 4.69667 6.79195
78 1 4.86152 4.15074 11.6766
69 1 4.74689 5.00049 10.3916
68 1 4.20785 4.3137 9.16508
37 1 6.01232 3.3338 11.8589
47 1 5.14143 8.03456 2.24258
49 1 5.62203 6.72184 1.63678
82 1 4.92901 9.12133 1.3422
92 1 5.82225 8.43498 3.34809
55 1 5.83298 7.13043 5.76511
60 1 2.73563 8.07009 4.87385
73 1 4.29976 7.63628 8.71907
62 1 5.61986 7.48629 8.31802
61 1 5.54579 8.14929 6.78476
65 1 3.2331 6.68199 8.42802
102 1 4.17498 8.9435 9.2125
81 1 5.80566 6.50917 11.6946
72 1 5.76959 6.02398 10.4576
88 1 3.79363 11.4965 1.95303
85 1 3.56961 10.8594 0.557753
90 1 3.68178 9.46211 0.75285
97 1 5.55686 10.4211 5.29832
94 1 5.36496 11.8787 5.35442
20 1 3.1791 11.5275 4.53591
87 1 3.14831 11.0299 3.17989
93 1 5.27383 9.74558 6.53517
100 1 5.19839 10.7288 7.93678
106 1 4.89324 12.1181 8.29694
101 1 5.35532 9.79576 9.0015
33 1 3.54452 11.9993 8.99562
98 1 3.14535 11.0521 10.0885
103 1 3.06425 11.7365 11.4414
99 1 3.08047 9.6089 9.75347
114 1 9.07479 1.72947 0.137071
123 1 8.84158 0.989775 5.3021
19 1 6.39883 0.762521 3.71632
15 1 6.6275 0.0249456 4.88068
121 1 7.98453 -0.12923 5.51126
129 1 8.34244 0.354329 9.3654
130 1 8.33892 2.49267 11.5867
137 1 6.86829 0.519161 9.23408
134 1 7.04795 2.60502 11.128
147 1 7.86207 4.74902 2.12828
139 1 9.052 5.4921 1.75333
156 1 6.84004 4.57825 4.39333
150 1 8.09167 4.14336 4.90216
141 1 6.67071 4.88629 2.99807
151 1 8.34874 5.39511 7.12679
166 1 7.35159 4.64106 7.73102
23 1 6.23493 4.17202 6.88259
167 1 7.57033 4.05662 9.12428
165 1 8.60577 4.53914 10.004
35 1 6.76394 2.86357 9.69775
171 1 7.85759 8.48952 1.50204
140 1 7.53849 7.81688 0.28732
142 1 8.18628 7.71781 2.7126
145 1 6.26474 7.08716 0.469056
144 1 7.05182 7.67635 3.69309
148 1 7.04385 7.0769 4.94208
154 1 8.36826 7.14485 5.38574
153 1 8.51334 6.81923 6.77402
162 1 8.68285 7.80477 7.91198
188 1 8.04751 8.33817 11.3657
160 1 7.92002 7.37655 10.0893
74 1 6.41996 7.01846 9.39118
169 1 7.03391 9.7196 1.81812
91 1 5.92565 9.94547 0.868626
170 1 7.13876 10.3981 3.09217
174 1 8.33915 11.1938 2.88905
95 1 6.0404 9.87364 3.96289
177 1 8.76734 9.83892 6.40688
178 1 8.7568 11.3308 6.45014
180 1 7.97472 10.1899 8.64841
181 1 8.42791 11.5388 8.60958
184 1 8.42586 9.10611 7.58584
104 1 6.72588 9.81152 9.42315
110 1 6.83582 9.71136 10.8448
86 1 6.36884 10.068 12.0252
115 1 10.8529 1.54696 2.21805
112 1 10.0067 1.32811 0.972874
116 1 12.0792 0.951692 2.73292
111 1 10.0662 2.15034 3.36338
126 1 11.0688 0.170147 4.52758
120 1 9.98836 1.21739 4.53754
127 1 10.2283 0.492735 7.92906
189 1 11.5804 0.013131 7.51911
131 1 9.58164 1.22417 9.0443
135 1 10.1505 2.33356 9.88229
132 1 11.4569 2.94471 9.7131
119 1 10.0185 4.96139 0.940815
117 1 11.1158 4.64822 1.68032
128 1 10.0619 3.56463 3.75472
124 1 9.39214 3.91173 4.96879
146 1 10.8168 4.60176 3.06575
157 1 11.1832 5.92021 3.76782
161 1 10.3634 4.9045 8.39848
155 1 9.73351 4.72882 7.19014
125 1 10.3377 3.99197 6.13538
122 1 11.7206 3.95717 6.23992
133 1 11.4792 4.11685 8.97373
163 1 9.51518 5.45538 9.33032
113 1 9.9224 4.40903 12.0568
136 1 9.25155 3.55862 11.0568
168 1 11.6587 7.48664 0.513678
143 1 9.19498 6.78565 2.59188
149 1 9.48096 7.96232 4.94837
138 1 10.1361 7.00373 3.73124
152 1 11.4217 7.33604 6.6024
158 1 11.0983 6.88196 10.4976
164 1 10.5493 7.71982 9.45508
79 1 11.289 6.80993 11.772
159 1 9.08625 7.08954 9.00218
172 1 10.0634 10.3485 4.47046
173 1 11.0522 11.2265 4.93334
179 1 9.51135 10.8547 3.31365
175 1 9.51452 9.27748 5.31196
176 1 11.9338 10.5625 5.89665
182 1 11.7179 9.82903 8.21251
186 1 11.6095 10.9439 7.33501
185 1 9.32569 11.9328 7.59674
187 1 10.3895 9.82316 10.5748
190 1 11.4863 10.9515 10.7375
183 1 10.7825 9.18971 9.2641
191 1 9.26651 9.27916 11.3081
105 1 12.3715 11.9734 10.3991
ITEM: TIMESTEP
4000
ITEM: NUMBER OF ATOMS
191
ITEM: BOX BOUNDS pp pp pp
-1.5225275807440938e-01 1.2152252758074431e+01
-1.5225275807440938e-01 1.2152252758074431e+01
-1.5225275807440938e-01 1.2152252758074431e+01
ITEM: ATOMS id type x y z
4 1 1.54275 2.72549 1.70562
5 1 2.89518 2.64525 2.10033
12 1 1.12139 0.460516 4.8702
118 1 0.0487477 0.630532 3.98112
13 1 1.26269 1.27999 5.97981
17 1 2.45347 2.25086 5.99104
31 1 2.62191 0.828905 8.77911
32 1 1.24428 0.712395 8.48993
11 1 0.574925 0.87109 7.22873
28 1 0.369496 0.783187 9.71076
38 1 2.53654 1.92686 10.8725
30 1 1.2935 2.57756 11.1009
29 1 0.197608 2.14883 10.2205
36 1 2.81011 0.728719 11.5121
7 1 0.179631 4.7589 1.4318
6 1 0.867289 3.60308 0.910754
45 1 0.910661 5.75092 1.96268
14 1 2.24393 3.54813 6.3976
63 1 0.510614 5.03986 8.87537
22 1 0.686726 3.77029 6.30805
34 1 1.07619 3.79503 11.8963
64 1 1.42931 5.01847 11.3831
66 1 1.20967 4.78101 9.96816
39 1 0.434398 8.02963 0.818953
43 1 2.74796 8.29365 0.705163
42 1 1.65429 8.04778 1.56198
41 1 1.59848 7.79833 2.88381
54 1 2.58062 6.66676 5.44016
50 1 2.14764 8.77163 3.67988
52 1 0.820798 6.4094 5.47857
53 1 0.168185 6.21538 4.23569
40 1 1.03338 6.60148 3.11037
60 1 2.77091 7.92759 4.78581
108 1 1.39522 8.36726 8.716
67 1 1.94197 7.05798 8.50658
59 1 0.332648 6.55199 6.90989
109 1 0.205832 8.7333 7.998
71 1 1.02305 6.11668 8.11985
77 1 2.14341 6.2571 11.7131
76 1 2.40774 7.62642 11.834
75 1 1.65969 8.56806 11.1314
107 1 1.98697 9.0235 9.82638
80 1 0.718324 9.03225 12.0181
89 1 0.680835 10.2642 0.641207
84 1 0.959829 10.4524 2.00338
96 1 0.94343 10.4584 5.3856
21 1 1.82517 11.3867 4.84093
83 1 1.98305 9.99999 2.95773
3 1 4.65596 0.531842 2.0991
1 1 3.79206 1.676 1.78259
2 1 5.97051 0.403374 2.5749
16 1 4.28921 0.12937 5.12282
18 1 3.81759 1.46065 5.70525
26 1 5.75268 0.811968 8.79018
24 1 5.48611 2.29453 8.68208
10 1 4.89208 2.28364 6.25292
9 1 5.60565 2.88877 7.19884
106 1 4.87161 -0.121576 8.27608
25 1 2.97245 1.98573 9.56255
37 1 5.76332 2.89356 11.7022
27 1 4.08708 2.86084 9.25388
48 1 4.54503 4.52615 0.395625
44 1 5.61302 5.43089 2.24147
46 1 4.55711 4.53235 1.73769
8 1 3.50442 3.90839 2.44557
51 1 3.67324 5.86236 5.98055
56 1 5.13555 5.93092 5.68272
58 1 5.95738 4.75411 5.43432
70 1 3.53123 5.24192 8.23142
57 1 3.07065 4.823 6.90439
78 1 4.97588 3.95858 11.5496
69 1 4.8869 4.84571 10.2969
68 1 4.04133 4.23656 9.27983
47 1 5.00111 8.08959 2.20648
49 1 5.58136 6.91277 1.65834
92 1 5.68216 8.3902 3.43725
55 1 5.89756 7.24421 5.80019
73 1 4.32694 7.69251 8.89951
62 1 5.84459 7.54533 8.20949
61 1 5.71488 8.09668 6.89386
65 1 3.28995 6.65616 8.48693
81 1 5.75725 6.63639 11.5518
102 1 4.34731 9.04118 9.34354
72 1 5.63666 6.03385 10.1779
88 1 3.73538 11.6287 1.87121
85 1 3.5763 11.0183 0.46017
90 1 3.61932 9.50084 0.56223
82 1 4.91238 9.23463 1.24766
97 1 5.64096 10.3042 5.26725
94 1 5.50804 11.725 5.2292
87 1 3.07712 11.0369 3.07424
20 1 3.20965 11.4751 4.48823
95 1 5.98247 9.79985 3.8476
93 1 5.55075 9.56004 6.61489
100 1 5.23993 10.5409 7.72942
33 1 3.59461 12.075 8.92192
101 1 5.45537 9.95376 8.99807
98 1 3.43792 11.1922 10.0712
103 1 3.43153 11.6995 11.4655
99 1 3.2059 9.76676 9.76319
114 1 8.94912 1.40247 0.161924
123 1 8.93812 0.907254 5.31667
19 1 6.96084 0.153044 3.63056
15 1 6.79321 -0.0255354 4.94882
121 1 7.96171 0.0649314 5.6639
129 1 8.31263 0.139822 9.61952
130 1 8.19811 2.31418 11.5576
137 1 6.91134 0.490941 9.4468
134 1 6.83762 2.44901 10.888
147 1 7.69345 4.70942 1.99933
139 1 8.91856 5.35598 1.71017
156 1 6.66558 4.24193 4.39891
150 1 8.07364 3.94206 4.78528
141 1 6.65101 4.77692 2.94195
151 1 8.37633 5.34563 7.11765
166 1 7.23574 4.63545 7.73316
23 1 6.32682 4.113 6.80579
167 1 7.5077 3.95314 8.99216
165 1 8.52946 4.53423 9.83975
35 1 6.76038 2.92565 9.57755
171 1 7.80362 8.49513 1.63408
140 1 7.65265 7.83481 0.284274
145 1 6.40835 6.99414 0.476882
142 1 7.92167 7.63544 2.78379
144 1 6.92616 7.75825 3.72762
148 1 7.07704 7.35906 5.06756
154 1 8.29611 7.07682 5.5681
153 1 8.45524 6.73307 6.89778
162 1 8.5975 7.64032 7.9011
188 1 8.10706 8.43488 11.1876
160 1 7.82242 7.56249 10.1201
74 1 6.55325 6.80829 9.28572
159 1 9.00799 7.1707 9.25401
169 1 7.19801 9.75564 1.78576
91 1 6.05342 9.99426 0.957755
174 1 7.89601 11.4494 3.15679
170 1 7.05099 10.3378 3.048
177 1 8.64358 9.73381 6.2977
178 1 8.54603 11.2673 6.41929
180 1 7.83533 10.0509 8.69973
181 1 8.54286 11.2856 8.78118
184 1 8.43949 9.16642 7.66914
104 1 6.75419 10.2094 9.57627
110 1 6.53499 10.7103 10.8597
86 1 6.22608 10.7565 12.1208
115 1 10.7585 1.46207 2.29755
112 1 9.86701 1.31318 1.10835
116 1 12.0808 0.935581 2.52584
111 1 10.261 2.06792 3.55064
126 1 11.115 0.116377 4.5634
120 1 10.0789 0.98898 4.50387
127 1 10.1764 0.423589 8.08196
189 1 11.4527 0.0169414 7.48095
135 1 10.0022 2.57107 10.0578
131 1 9.44089 1.13032 9.27162
119 1 10.0673 4.8281 0.992119
117 1 11.1292 4.68554 1.86365
128 1 10.161 3.36411 3.75781
124 1 9.44097 3.66926 4.94328
146 1 10.8834 4.61789 3.2892
157 1 10.9819 5.80362 4.05152
161 1 10.2783 5.08932 8.32891
155 1 9.59612 4.59884 7.1985
122 1 11.5807 3.73046 6.10211
125 1 10.1778 3.84639 6.10531
133 1 11.5039 4.48408 8.77856
163 1 9.36404 5.51795 9.30727
113 1 9.87835 4.13721 12.1266
136 1 9.20381 3.46346 10.9721
132 1 11.2681 2.952 9.75484
168 1 11.648 7.101 0.787624
143 1 9.08485 6.62662 2.6046
149 1 9.38671 7.76456 4.96334
138 1 10.0067 7.00047 3.98795
152 1 11.9519 7.69353 7.13067
158 1 11.2254 7.1997 10.5111
164 1 10.4059 7.85671 9.55217
79 1 11.0972 6.78264 11.8315
172 1 9.98781 10.2919 4.45639
173 1 11.0387 10.9979 5.0329
175 1 9.44409 9.17171 5.18856
179 1 9.29137 10.9984 3.41613
176 1 12.0352 10.5315 5.96248
182 1 11.5488 9.73154 8.2431
186 1 11.7378 10.8788 7.25796
185 1 9.13486 11.7955 7.62657
187 1 10.1944 10.122 10.2758
190 1 11.0506 11.2599 10.5433
183 1 10.7127 9.19871 9.24542
105 1 12.071 12.0558 10.434
191 1 9.09299 9.57261 11.0817
ITEM: TIMESTEP
5000
ITEM: NUMBER OF ATOMS
191
ITEM: BOX BOUNDS pp pp pp
-6.6876515353336316e-02 1.2066876515353364e+01
-6.6876515353336316e-02 1.2066876515353364e+01
-6.6876515353336316e-02 1.2066876515353364e+01
ITEM: ATOMS id type x y z
4 1 2.01518 2.54639 1.79158
12 1 1.00263 0.735988 5.00147
118 1 0.0243524 0.862434 4.03313
31 1 2.71022 0.836035 8.90041
32 1 1.29148 0.937685 8.79023
11 1 0.700712 0.88804 7.35664
13 1 1.27518 1.40512 6.223
17 1 2.5704 2.14972 6.24043
28 1 0.332339 1.09913 9.73969
38 1 2.7355 1.78306 10.9729
30 1 1.52315 2.7172 10.9784
29 1 0.258811 2.39455 10.2857
7 1 0.62089 4.5517 1.76552
6 1 1.37467 3.63548 1.05721
45 1 1.29397 5.62731 2.33773
14 1 2.32019 3.58197 6.32987
63 1 0.510015 5.184 8.70464
22 1 0.882272 3.73218 5.89628
34 1 1.57657 3.83334 11.8136
64 1 1.58066 5.10366 11.145
66 1 1.38856 5.03054 9.75201
39 1 0.27675 8.14218 1.02711
43 1 2.63029 8.25401 0.700766
42 1 1.57342 8.05014 1.56114
41 1 1.70289 7.87381 2.86308
54 1 2.44006 6.69679 5.34712
50 1 2.12396 8.83066 3.81107
52 1 0.984542 6.33647 5.44122
53 1 0.251137 6.43439 4.30533
60 1 2.76624 7.9292 4.81611
40 1 1.16299 6.67806 3.19255
108 1 1.38257 8.52216 8.72205
67 1 1.81801 7.17429 8.50967
59 1 0.351946 6.60776 6.73668
109 1 0.185509 8.73349 7.90217
71 1 0.953335 6.22034 7.92355
77 1 2.08807 6.33945 11.489
76 1 2.09373 7.70098 11.6021
75 1 1.2927 8.88504 11.0958
89 1 0.56799 10.4219 0.909915
84 1 1.10727 10.4937 2.15535
80 1 0.464466 9.23539 0.0486925
96 1 1.05111 10.5678 5.66071
21 1 1.74299 11.6394 4.99485
83 1 2.06229 10.1939 3.16517
107 1 1.89189 9.20382 9.8007
3 1 4.75479 0.30691 2.24897
1 1 4.07441 1.43526 2.31441
5 1 3.29557 2.50982 2.58145
18 1 3.78317 1.41834 5.9026
16 1 4.11782 0.0581179 5.41233
10 1 4.89103 2.26586 6.00269
26 1 5.81732 0.749136 8.45523
24 1 5.65355 2.32359 8.45975
27 1 4.32763 2.79173 8.96263
9 1 5.62903 2.71828 7.01936
25 1 3.25728 1.98781 9.52887
36 1 3.00309 0.642796 11.7723
48 1 4.21537 4.93109 0.544522
44 1 5.52222 5.4502 2.27026
46 1 4.41941 4.71713 1.88165
8 1 3.88813 3.71061 2.78334
51 1 3.68397 5.6985 5.90624
58 1 5.80165 4.54373 5.33582
56 1 5.083 5.7435 5.71112
70 1 3.40349 5.07256 8.26629
57 1 3.28636 4.7008 6.78251
68 1 4.24248 4.32029 9.13895
78 1 4.67291 4.24898 11.5114
69 1 4.79378 4.88562 10.2107
72 1 5.94367 5.78174 10.1696
37 1 5.43361 3.06862 11.5041
47 1 5.14477 7.80705 2.19282
49 1 5.68004 6.64018 1.56017
82 1 4.96311 8.87975 1.22059
92 1 5.67292 8.25075 3.47947
55 1 5.78339 7.08745 5.81488
73 1 4.34137 7.60064 8.75227
62 1 5.66406 7.32801 8.23829
61 1 5.64014 8.11258 6.75535
65 1 3.25367 6.71058 8.60889
102 1 4.36772 8.93328 9.34291
88 1 3.88059 11.3203 2.0586
85 1 3.62821 10.6514 0.804328
90 1 3.63876 9.23238 0.925078
97 1 5.61037 10.2187 5.21898
94 1 5.52162 11.6329 5.18499
87 1 3.12303 11.0712 3.25407
20 1 3.09896 11.5164 4.59698
95 1 5.99625 9.58013 3.92157
93 1 5.51608 9.51756 6.56309
100 1 5.15415 10.4674 7.61783
106 1 4.8446 11.8482 8.04816
101 1 5.36853 9.74563 8.91219
33 1 3.5806 11.8382 8.92163
98 1 3.32404 10.9467 10.2204
103 1 3.30941 11.353 11.664
99 1 3.20982 9.50051 9.82525
114 1 8.67319 1.70911 0.336107
2 1 6.07579 0.298253 2.49334
123 1 8.83242 1.14064 5.2062
19 1 7.05866 0.172912 3.43754
15 1 6.79376 0.175011 4.91402
121 1 7.96882 0.121857 5.61842
129 1 8.29387 0.47983 9.47712
130 1 8.04908 2.53455 11.3619
137 1 6.81318 0.594856 9.49731
134 1 6.6062 2.79263 10.8005
147 1 7.81845 4.79538 2.15458
141 1 6.60246 4.82979 2.88183
139 1 9.00477 5.48274 1.83156
156 1 6.69722 4.34438 4.2283
150 1 8.02653 4.16569 4.84037
151 1 8.34216 5.3374 7.12094
166 1 7.32852 4.45995 7.61956
23 1 6.27255 3.88681 6.84412
167 1 7.59671 3.9538 8.96486
165 1 8.64239 4.59905 9.70018
81 1 6.44737 5.87032 11.4851
35 1 6.65587 2.98944 9.40473
171 1 7.77215 8.41524 1.49537
140 1 7.56561 7.67202 0.371643
145 1 6.63333 6.68619 0.509637
142 1 7.99768 7.66104 2.65383
144 1 6.85462 7.5139 3.63026
148 1 7.07412 7.06661 5.00764
154 1 8.3441 7.06671 5.55796
153 1 8.38682 6.74883 6.82117
162 1 8.73992 7.73303 7.73451
188 1 8.02846 8.05943 11.2161
160 1 7.71066 7.37766 9.94973
74 1 6.51247 6.75331 9.3533
159 1 8.96237 7.21705 9.08425
169 1 7.13826 9.63425 1.74951
91 1 6.02799 9.77545 1.01773
174 1 7.94691 11.0907 3.15597
170 1 7.05698 10.1598 3.03235
177 1 8.55049 9.81728 6.30566
178 1 8.54655 11.2258 6.49112
180 1 7.9426 10.125 8.74162
181 1 8.48037 11.357 8.80448
184 1 8.51696 9.13835 7.62178
104 1 6.70129 9.81404 9.53929
110 1 6.55292 10.523 10.7099
86 1 6.14426 10.4827 11.9652
191 1 8.99239 9.16814 11.1719
115 1 10.7172 1.74496 2.21388
112 1 9.81265 1.53476 1.10647
116 1 11.9942 1.32167 2.71655
111 1 10.1664 2.27613 3.33149
126 1 10.9382 0.292128 4.50696
120 1 9.89511 1.25269 4.38191
127 1 10.2218 0.463699 7.99855
189 1 11.528 0.175173 7.51486
135 1 10.0236 2.5416 9.85265
131 1 9.62075 1.26649 9.22172
105 1 11.7387 -0.13837 10.2456
119 1 10.017 4.80583 1.00001
117 1 11.3073 4.63598 1.96132
128 1 10.0975 3.67582 3.73509
124 1 9.39079 3.78702 4.90062
146 1 10.9668 4.78068 3.36392
122 1 11.6934 3.86392 5.89062
161 1 10.2922 5.1442 8.26361
155 1 9.6921 4.85936 7.08108
125 1 10.163 4.03801 6.03672
133 1 11.3774 4.48451 8.84736
163 1 9.30029 5.66107 9.16083
136 1 9.06273 3.52425 10.7225
132 1 11.3804 3.1555 9.5831
113 1 9.71335 4.44922 11.8063
168 1 11.4673 7.15115 0.833831
143 1 9.16172 6.6525 2.6849
149 1 9.42631 7.8371 4.85335
138 1 9.97429 7.04495 3.81119
157 1 11.0175 6.14412 3.9372
152 1 11.9445 7.84963 6.99999
158 1 10.9942 6.97622 10.4812
164 1 10.2094 7.81132 9.57396
79 1 10.9213 6.80246 11.7677
172 1 10.0299 10.233 4.29335
173 1 10.9615 11.0985 4.92294
175 1 9.35753 9.24316 5.08364
179 1 9.2324 10.7249 3.22431
176 1 11.817 10.6363 5.98956
182 1 11.5446 9.82148 8.34675
186 1 11.4348 10.8198 7.38033
185 1 9.26043 11.6762 7.63911
187 1 9.90288 10.0171 10.602
190 1 10.6903 11.2571 10.7344
183 1 10.4679 9.31538 9.43813
ITEM: TIMESTEP
6000
ITEM: NUMBER OF ATOMS
191
ITEM: BOX BOUNDS pp pp pp
-9.2160835170837146e-02 1.2092160835170930e+01
-9.2160835170837146e-02 1.2092160835170930e+01
-9.2160835170837146e-02 1.2092160835170930e+01
ITEM: ATOMS id type x y z
4 1 2.06051 2.56654 1.57684
12 1 1.13214 0.470848 4.85041
118 1 0.0155245 0.54028 4.02956
31 1 2.64036 0.807182 8.86823
32 1 1.27051 0.681917 8.81964
11 1 0.618985 0.74574 7.49663
13 1 1.23993 1.16883 6.26127
17 1 2.47075 2.11042 6.16505
28 1 0.353788 0.875014 9.88989
38 1 2.64955 1.91394 10.8167
30 1 1.45901 2.5659 10.8397
29 1 0.16863 2.22307 10.321
36 1 2.90694 0.86837 11.6979
7 1 0.519843 4.50088 1.49711
6 1 1.22114 3.56366 0.885784
45 1 1.09542 5.56477 2.13298
14 1 2.314 3.52428 6.32983