ITEM: TIMESTEP
1000
ITEM: NUMBER OF ATOMS
191
ITEM: BOX BOUNDS pp pp pp
0.0000000000000000e+00 1.2000000000000000e+01
0.0000000000000000e+00 1.2000000000000000e+01
0.0000000000000000e+00 1.2000000000000000e+01
ITEM: ATOMS id type x y z
12 1 1.20509 0.848646 4.8824
1 1 2.45416 2.21262 3.44646
118 1 0.0568909 0.931156 4.21542
31 1 2.7963 1.20012 8.59879
32 1 1.33362 1.11411 8.47168
11 1 0.524598 1.20419 7.34151
17 1 2.71238 2.40746 6.16634
13 1 1.38231 1.67759 6.10224
28 1 0.600435 1.06936 9.68613
29 1 0.380463 2.49177 10.0643
30 1 1.54051 2.88833 10.6729
38 1 2.76966 2.1392 10.5977
4 1 2.18611 3.42645 1.49308
6 1 1.37529 4.1638 0.681185
7 1 0.316389 4.7799 1.23673
5 1 2.72351 3.38718 2.80547
53 1 0.358511 5.83537 4.1516
14 1 2.48962 3.77126 6.47623
22 1 1.04066 4.12647 6.92577
63 1 0.861504 4.89394 8.19573
34 1 1.60511 4.1806 11.3394
64 1 1.84804 5.17285 10.4568
66 1 1.97643 4.87993 9.13738
39 1 0.181589 8.50532 0.712513
43 1 2.65505 8.15867 0.868042
42 1 1.41328 7.99508 1.5577
45 1 0.410238 6.0196 1.6437
40 1 0.607622 6.50916 2.98891
41 1 1.37971 7.70322 2.91852
54 1 2.3679 6.52629 5.21292
50 1 2.14686 8.46843 3.69532
52 1 1.04645 6.21113 5.25484
60 1 2.43505 7.90596 4.88676
59 1 0.319578 6.54721 6.41356
67 1 1.82448 7.31926 8.10585
71 1 0.824954 6.39916 7.65354
108 1 1.50378 8.72625 8.5489
75 1 1.63839 8.73584 10.9
76 1 2.39605 7.75422 11.4558
77 1 2.36185 6.3648 11.1126
89 1 1.68557 10.4378 0.778156
84 1 1.26087 10.293 2.26055
96 1 1.39937 10.5244 5.80047
21 1 1.92503 11.6793 5.0829
83 1 1.97272 9.86486 3.45811
109 1 0.460584 9.13924 7.92927
107 1 1.96788 9.23301 9.68906
80 1 0.964113 9.47731 11.8748
3 1 3.46182 1.23958 3.5408
16 1 4.12741 0.164967 5.50129
2 1 4.94593 1.47411 3.18049
9 1 5.79569 2.82726 7.153
24 1 5.70492 2.43076 8.65892
26 1 5.83625 0.933983 8.58776
10 1 5.33926 2.06308 6.16372
18 1 3.95423 1.52412 6.0336
25 1 3.47206 2.22466 9.36298
36 1 3.1563 1.05003 11.3995
48 1 4.33373 4.65548 0.709691
44 1 5.99016 5.22315 2.44868
46 1 4.83482 4.57961 2.03733
8 1 3.91788 4.06314 2.96916
58 1 5.89245 4.77236 5.62939
56 1 5.05263 5.94244 5.47293
51 1 3.61934 5.79543 5.77172
70 1 3.40603 5.25056 8.37877
57 1 3.29911 4.88631 6.83742
78 1 5.12797 4.29346 11.5245
68 1 4.40579 4.42649 9.42396
69 1 5.059 5.21573 10.3426
27 1 4.47806 3.0505 9.22505
47 1 5.19546 7.94796 2.43487
82 1 4.90455 8.78538 1.39948
92 1 5.0144 8.61295 3.70179
55 1 5.95341 7.18716 5.53858
73 1 4.19161 7.74413 8.55678
62 1 5.53684 7.49362 7.95057
65 1 3.19209 6.8109 8.4114
61 1 5.63671 8.06901 6.60218
72 1 5.55993 6.5066 10.3029
81 1 5.54413 7.76087 11.0694
88 1 3.49987 11.0428 2.1632
85 1 3.16455 10.4098 1.00517
91 1 5.91697 9.71594 1.04399
90 1 3.67653 9.11918 1.0001
94 1 5.51007 11.7138 5.47563
97 1 5.54044 10.2859 5.25334
87 1 3.11333 10.7168 3.43176
20 1 3.18504 11.8843 4.2963
95 1 5.89847 9.73487 4.04418
93 1 5.64775 9.60237 6.45837
100 1 5.39615 10.4731 7.59658
101 1 5.51693 9.71445 8.84227
106 1 4.93343 11.8978 7.96221
33 1 3.59975 11.9983 8.55921
98 1 3.50555 11.1841 9.68144
103 1 3.22428 11.7935 10.9441
99 1 3.27887 9.79207 9.59418
102 1 4.32834 9.07969 9.01661
114 1 8.60925 1.0636 0.341457
15 1 6.28686 1.03729 5.36838
19 1 6.14573 1.31933 3.9212
121 1 7.76238 0.614062 5.91285
128 1 8.88866 2.97665 3.70562
129 1 8.35478 0.18746 9.37563
130 1 8.26103 2.13424 11.4211
137 1 7.02759 0.504277 9.32774
134 1 6.96563 2.54662 10.8961
35 1 6.87822 2.8466 9.43909
147 1 8.12484 3.78741 2.81579
139 1 8.95702 4.71955 2.11283
141 1 6.86754 4.534 3.29409
150 1 8.14886 4.52859 5.47536
156 1 6.87198 4.6036 4.71775
151 1 8.27125 5.07366 6.80782
166 1 7.22697 4.60737 7.64401
23 1 6.11789 4.13615 6.99852
167 1 7.57641 4.01855 8.90824
165 1 8.33637 4.89564 9.7276
37 1 6.09022 3.28999 11.648
49 1 6.32647 6.66491 2.15676
140 1 7.99375 7.68454 0.383597
142 1 8.58072 7.38481 2.5869
145 1 6.96274 6.67636 0.681379
171 1 8.11027 8.45739 1.63405
144 1 7.31434 7.04926 3.2988
148 1 7.18411 7.1601 4.73754
154 1 8.35935 7.1502 5.53352
153 1 8.1698 6.55922 6.73473
162 1 8.58165 7.49694 7.74916
184 1 8.14193 8.93666 7.51019
188 1 7.99517 8.26872 11.0671
74 1 6.48352 6.90777 9.14608
160 1 7.81743 7.2395 9.89896
169 1 7.09657 9.53003 1.87342
174 1 7.97704 10.9841 3.56656
170 1 6.93637 10.1165 3.21665
177 1 8.34338 9.55504 6.12299
178 1 8.10362 11.1346 6.34415
180 1 7.89147 9.70405 8.60484
181 1 8.60636 10.9521 8.71045
185 1 8.91145 11.4014 7.40967
104 1 6.73251 9.58153 9.41521
110 1 6.49943 9.08283 10.8292
86 1 6.07477 10.1283 11.7812
115 1 10.3233 1.23323 2.44296
116 1 11.6482 0.993539 2.82226
112 1 9.70433 1.22206 1.2498
111 1 9.4857 1.66562 3.53701
126 1 10.9251 0.207048 4.75638
120 1 9.76984 1.11383 4.82804
123 1 9.07273 1.35593 5.95414
127 1 9.85358 0.871564 7.35898
189 1 11.3665 0.497339 7.24559
131 1 9.26943 1.27343 8.8753
135 1 9.92736 2.45712 9.72437
136 1 9.31994 2.91918 10.9834
105 1 11.8296 0.0101488 10.1355
119 1 10.0568 4.12402 1.1601
117 1 11.2913 4.10232 1.87838
157 1 11.3328 4.9189 4.17809
124 1 9.18021 3.70881 5.01453
146 1 11.3855 3.97031 3.30822
138 1 10.2186 5.74187 3.89366
161 1 10.2777 4.94223 8.31128
155 1 9.72347 4.77316 7.05922
133 1 11.4486 4.36918 8.8939
122 1 11.7791 3.7662 6.22739
125 1 10.4313 4.01175 6.05778
163 1 9.44619 5.61201 9.18789
113 1 9.86272 3.82653 11.855
132 1 11.2015 3.12199 9.46298
143 1 9.41135 6.11047 2.82495
168 1 11.139 7.60473 0.563201
149 1 9.69535 7.6531 5.41856
152 1 10.827 7.13612 6.19421
159 1 9.168 7.09184 8.9772
158 1 11.2905 7.02504 10.2119
164 1 10.4181 7.84684 9.49228
79 1 11.2299 6.74242 11.5198
172 1 10.0074 10.0659 4.56232
173 1 11.0291 10.7553 5.07982
175 1 9.42791 9.05859 5.30838
179 1 9.28849 10.6904 3.58403
182 1 11.2861 9.8532 8.11419
186 1 11.4828 11.032 7.29613
176 1 11.9937 10.5963 6.03074
187 1 10.2157 9.88624 10.5578
190 1 10.9942 11.1135 10.7664
183 1 10.5117 9.3033 9.2034
191 1 9.03 9.33326 11.045
ITEM: TIMESTEP
2000
ITEM: NUMBER OF ATOMS
191
ITEM: BOX BOUNDS pp pp pp
-1.1125603077546646e-01 1.2111256030775451e+01
-1.1125603077546646e-01 1.2111256030775451e+01
-1.1125603077546646e-01 1.2111256030775451e+01
ITEM: ATOMS id type x y z
4 1 1.73418 2.73463 1.37794
12 1 1.32463 0.59572 4.88366
118 1 0.184403 0.367817 3.95712
31 1 2.76955 0.939896 8.69721
32 1 1.30162 0.706078 8.54107
11 1 0.550757 0.85306 7.27765
17 1 2.54818 2.11417 6.14788
13 1 1.25625 1.37259 6.1037
28 1 0.352087 0.889343 9.72714
38 1 2.7901 1.99519 10.801
30 1 1.38879 2.61417 10.9717
29 1 0.353483 2.28543 10.1298
7 1 0.554106 4.78524 1.54458
6 1 1.04376 3.78252 0.65892
45 1 1.11134 5.73037 2.20188
14 1 2.25599 3.52578 6.60345
22 1 0.916097 3.95714 6.94079
63 1 0.726853 4.70525 8.37303
34 1 1.46503 3.96903 11.6304
64 1 1.90442 5.14694 10.7498
66 1 1.94167 4.79785 9.33469
39 1 0.125207 8.71592 1.07269
43 1 2.31503 8.0627 0.773561
42 1 1.2975 8.1031 1.70747
54 1 2.37776 6.58151 5.54302
50 1 2.12151 8.70485 3.83237
52 1 0.99145 6.26181 5.56536
53 1 0.35226 6.25478 4.3564
60 1 2.63182 7.85014 4.93915
40 1 1.12859 6.5689 3.23527
41 1 1.40006 7.82997 3.04654
108 1 1.4201 8.53379 8.67872
67 1 1.81956 7.17775 8.32116
71 1 0.739279 6.24444 8.02779
59 1 0.177303 6.65573 6.86165
75 1 1.29678 8.88462 11.0469
76 1 1.78728 7.70735 11.6716
77 1 2.09682 6.42717 11.3459
89 1 1.57537 10.7003 0.815606
84 1 1.26955 10.6525 2.22603
80 1 0.752092 9.80032 -0.132663
83 1 2.09911 10.0944 3.31819
21 1 1.95573 11.4618 5.25516
96 1 1.13806 10.4589 5.61399
109 1 0.296286 9.08593 8.13642
107 1 1.84415 9.19844 9.80865
3 1 4.6615 0.480026 1.97018
1 1 3.77871 1.4048 1.68345
2 1 5.89142 0.795879 2.49878
5 1 3.03143 2.43431 2.09874
18 1 3.83731 1.4505 5.83034
16 1 4.13083 0.0508506 5.47218
26 1 5.95053 0.75562 8.83205
24 1 5.59496 2.33721 8.62748
10 1 4.98573 2.02285 6.2252
9 1 5.6532 2.80504 7.13673
25 1 3.24021 2.14212 9.41145
36 1 3.11683 0.868823 11.6222
48 1 4.12959 4.76593 0.635442
44 1 5.56323 5.24607 2.72494
46 1 4.57421 4.51474 2.01488
8 1 3.85731 3.47827 2.58747
56 1 5.10992 5.71463 5.60174
58 1 5.90719 4.55259 5.74035
51 1 3.50805 5.67459 5.90656
70 1 3.12577 5.2114 8.55224
57 1 3.19662 4.62001 6.9893
78 1 4.85129 4.52646 11.6543
68 1 4.25993 4.40147 9.30779
69 1 4.74629 5.17556 10.3785
37 1 5.73602 3.47351 11.5988
27 1 4.32567 3.02186 9.14107
47 1 4.98983 7.82702 2.32464
82 1 4.69768 8.72984 1.31433
49 1 5.80515 6.60132 2.17711
90 1 3.38366 9.02402 0.854518
92 1 5.04316 8.43125 3.69447
55 1 5.76414 7.09217 5.48735
73 1 4.10729 7.68629 8.67884
62 1 5.41767 7.50112 8.03881
61 1 5.64229 8.05039 6.67062
65 1 3.12272 6.73351 8.54056
72 1 5.39174 6.44967 10.1059
81 1 5.39486 7.67759 10.9282
102 1 4.23092 9.0632 9.20004
88 1 3.80526 11.2396 2.20152
85 1 3.12213 10.6945 0.630459
91 1 5.79544 9.68882 0.964628
20 1 3.21844 11.5401 4.57418
94 1 5.5339 11.7539 5.39473
97 1 5.64296 10.3138 5.29193
87 1 3.2869 10.8102 3.39167
95 1 5.73636 9.53251 4.06852
93 1 5.34519 9.68282 6.45704
100 1 5.26379 10.7755 7.83067
101 1 5.42621 9.90125 8.9075
33 1 3.6346 12.0783 9.03681
106 1 4.89894 12.1441 8.20152
98 1 3.37484 11.0976 10.1336
99 1 3.24793 9.61666 9.97819
103 1 3.20012 11.6225 11.4343
86 1 5.92212 9.94505 11.8673
114 1 8.77585 1.87091 0.416286
15 1 6.69155 0.231658 4.90883
19 1 6.75925 0.735799 3.48756
121 1 8.03752 0.119214 5.59275
129 1 8.33723 0.454686 9.50135
130 1 8.17484 2.5584 11.4893
137 1 6.89096 0.499724 9.85772
134 1 6.77045 2.71458 11.0087
147 1 7.75826 4.72232 2.34425
139 1 9.01447 5.3862 2.00129
141 1 6.66164 4.63101 3.3022
150 1 8.21528 3.78791 4.89152
156 1 6.92038 4.4182 4.74191
151 1 8.59468 5.31455 6.94721
166 1 7.51725 4.5198 7.68217
23 1 6.2405 4.09351 7.08073
167 1 7.61576 4.01093 9.01501
165 1 8.70643 4.43145 9.8066
35 1 6.69076 3.03215 9.54069
171 1 7.92227 8.40433 1.46035
140 1 7.61427 7.59975 0.20023
142 1 8.20262 7.59002 2.53953
145 1 6.62343 6.5702 0.660708
144 1 7.03603 7.08566 3.28559
148 1 7.02637 7.04767 4.70197
154 1 8.23689 7.06434 5.39624
153 1 8.43007 6.62942 6.64155
162 1 8.50146 7.55158 7.64734
74 1 6.27198 6.78421 9.03297
188 1 7.81833 8.22871 11.0847
160 1 7.55627 7.3094 9.78616
110 1 6.4569 9.03971 10.8778
169 1 7.03474 9.42271 1.76019
170 1 6.95242 9.88437 3.1617
174 1 8.00865 10.8661 3.41254
177 1 8.81006 9.71748 6.29135
178 1 8.70712 11.1469 6.34253
180 1 7.85381 9.87693 8.71655
181 1 8.48845 11.2459 8.72505
184 1 8.37519 9.08492 7.5905
104 1 6.65383 9.61378 9.42622
191 1 8.9841 9.40443 10.8173
115 1 10.787 1.38354 2.20491
112 1 9.76963 1.32253 1.12169
116 1 12.1015 0.935834 2.70436
111 1 10.2182 2.13099 3.35183
126 1 11.1732 0.10978 4.62628
120 1 10.1851 1.18435 4.56129
123 1 9.03492 1.14921 5.36916
127 1 10.1599 0.633336 7.88872
189 1 11.4888 0.218576 7.42611
131 1 9.4844 1.36675 8.94494
135 1 10.0709 2.44406 9.80026
119 1 9.97022 4.7512 1.06387
117 1 11.241 4.67719 1.71978
128 1 10.4553 3.43054 3.82274
124 1 9.68497 3.80671 5.01841
146 1 10.9907 4.50866 3.24576
157 1 11.1692 5.77113 3.98081
161 1 10.5114 5.13942 8.49488
155 1 9.9321 4.83684 7.12568
122 1 11.9598 3.90908 6.26383
125 1 10.6066 4.11402 6.12474
133 1 11.5446 4.3878 9.09184
163 1 9.30797 5.54021 9.2925
136 1 9.25309 3.29061 10.7275
113 1 9.74375 4.25914 12.0497
132 1 11.4751 3.0252 9.58459
143 1 9.21286 6.63345 2.7999
168 1 11.1411 8.00635 0.814201
149 1 9.43005 7.68025 4.88039
138 1 10.0493 6.77802 3.88699
152 1 11.3728 7.65356 6.71579
158 1 11.1934 7.45101 10.4379
164 1 10.4117 7.95402 9.39515
79 1 10.7834 7.53599 11.7646
159 1 9.00975 7.1532 9.10997
172 1 10.1835 10.135 4.30444
173 1 11.0572 11.0092 4.82509
179 1 9.35051 10.7921 3.44349
176 1 11.9009 10.5484 5.85591
175 1 9.54438 9.11008 5.09435
182 1 11.4181 9.89614 8.15519
186 1 11.4557 11.0046 7.28035
185 1 9.32193 11.6312 7.5801
187 1 10.1248 9.93343 10.2426
190 1 10.6938 11.1987 10.4501
105 1 11.7167 12.0726 10.3086
183 1 10.562 9.29585 9.15019
ITEM: TIMESTEP
3000
ITEM: NUMBER OF ATOMS
191
ITEM: BOX BOUNDS pp pp pp
-2.3150201921440750e-01 1.2231502019214396e+01
-2.3150201921440750e-01 1.2231502019214396e+01
-2.3150201921440750e-01 1.2231502019214396e+01
ITEM: ATOMS id type x y z
5 1 2.82907 2.71354 1.89211
4 1 1.52816 2.76983 1.33687
12 1 0.813459 0.439603 4.96616
118 1 -0.240768 0.546173 4.03174
31 1 2.82617 0.594515 8.99026
32 1 1.33812 0.73373 8.83623
11 1 0.707092 0.533452 7.528
13 1 1.23415 1.08638 6.26101
17 1 2.45832 2.01758 6.14467
28 1 0.271703 0.88983 10.004
38 1 2.4584 1.85893 10.7746
30 1 1.33163 2.64143 10.9543
29 1 0.1138 2.21924 10.3323
36 1 2.70105 0.783818 11.6527
7 1 0.253169 4.69436 1.26863
6 1 1.00297 3.73424 0.585684
45 1 0.93127 5.44646 2.13022
14 1 2.1215 3.46049 6.38559
63 1 0.644644 4.75682 8.72018
22 1 0.796197 3.49663 6.12062
57 1 3.04711 4.73951 6.76233
34 1 1.40167 3.84691 11.6487
64 1 1.99107 4.91585 10.8788
66 1 1.90479 4.74489 9.42567
39 1 0.265135 8.3628 0.650728
42 1 1.48019 7.9132 1.43976
43 1 2.56197 8.08136 0.519027
41 1 1.30796 7.64339 2.79761
54 1 2.52563 6.73937 5.42177
50 1 1.87241 8.61377 3.60135
40 1 0.966147 6.33959 3.16759
53 1 0.111384 6.14948 4.32983
52 1 1.02597 6.36699 5.55184
108 1 1.45481 8.42576 8.69744
67 1 1.87754 7.07602 8.57619
109 1 0.326252 8.95661 7.87824
59 1 0.335159 6.78508 6.63907
71 1 0.760129 6.08445 7.79646
152 1 -0.00227415 8.03133 6.93586
77 1 2.0773 6.26048 11.2609
76 1 2.27838 7.66305 11.6316
75 1 1.43994 8.77447 11.148
89 1 1.28267 10.4777 0.589678
84 1 0.806328 10.3803 2.06106
80 1 0.778564 9.41127 -0.199407
83 1 1.80855 10.0461 3.08874
21 1 1.49844 11.6254 4.86188
96 1 0.804353 10.5481 5.35566
87 1 2.82895 11.0917 3.13514
20 1 2.79833 11.7684 4.41029
107 1 1.89541 9.25974 9.83528
3 1 4.25998 0.252272 1.91717
1 1 3.51549 1.50921 1.91595
2 1 5.45763 0.543735 2.67776
16 1 3.9386 -0.186502 5.31743
18 1 3.65849 1.33053 5.95174
9 1 5.82573 2.57378 7.39896
24 1 5.71689 2.33185 8.8912
10 1 5.09566 1.75505 6.50447
26 1 5.71868 0.703033 9.01933
25 1 3.28642 1.77014 9.67024
27 1 4.23589 2.84248 9.34285
48 1 4.37938 5.10177 0.214979
8 1 3.4806 3.85499 2.2032
46 1 4.35901 4.67753 1.65068
44 1 5.51044 5.25234 2.51165
56 1 5.04598 5.69776 5.76344
51 1 3.51382 5.71759 5.90484
58 1 6.01102 4.43623 5.68227
70 1 3.13972 5.06021 8.43465
78 1 5.28662 4.63619 11.6675
68 1 4.29385 4.33416 9.26634
69 1 5.08276 5.21834 10.3546
37 1 5.77002 3.34434 11.8298
47 1 4.6208 8.03888 2.44041
82 1 4.67429 8.89221 1.20556
49 1 5.59465 6.77626 2.67006
92 1 4.30979 8.64188 3.92648
55 1 5.82228 7.07069 5.73225
60 1 3.20427 8.07762 4.45617
65 1 3.19715 6.7422 8.37088
62 1 5.49025 7.46975 8.09523
73 1 4.17722 7.81075 8.66624
61 1 5.743 8.03848 6.77113
72 1 5.67738 6.46571 10.3812
88 1 3.28391 11.5833 1.86289
91 1 5.75979 9.61109 0.963397
85 1 2.7583 10.8389 0.574298
90 1 3.38235 9.15159 0.617776
95 1 5.34721 9.68878 4.1255
94 1 5.37509 11.7679 5.46466
97 1 5.43519 10.3017 5.42664
93 1 5.62128 9.60034 6.83621
100 1 5.5229 10.6462 7.956
106 1 4.98552 11.9511 8.52569
101 1 5.51366 9.85882 9.1593
33 1 3.67583 12.03 9.10183
98 1 3.40414 11.2601 10.2709
99 1 3.19988 9.86035 10.0076
86 1 5.96116 10.004 12.0932
103 1 3.01821 11.8399 11.6207
102 1 4.24802 9.05656 9.36033
15 1 6.5924 -0.145686 4.90236
19 1 6.3935 0.603669 3.64712
123 1 8.7317 0.808622 4.67416
121 1 7.96811 -0.15541 5.36485
129 1 8.35946 0.177617 9.25111
137 1 7.03416 0.420238 9.47619
35 1 6.9335 2.91512 9.70266
134 1 6.89231 2.71223 11.1571
130 1 8.32661 2.8615 11.6474
147 1 7.7645 4.53868 2.24607
139 1 9.11106 5.34702 2.00573
156 1 6.91563 4.05356 4.43942
150 1 8.26791 3.92581 4.86372
141 1 6.64938 4.48395 3.06808
151 1 8.54198 5.30669 7.01995
166 1 7.4296 4.60535 7.80998
23 1 6.3917 3.77733 6.83776
165 1 8.69626 4.66578 9.97849
136 1 9.01927 4.1211 11.2717
167 1 7.58611 4.12959 9.15787
171 1 7.86142 8.63785 1.71656
140 1 7.96868 8.14287 0.280917
142 1 7.78534 7.55442 2.60768
143 1 9.02978 6.67067 2.63376
145 1 7.15374 7.15173 -0.127798
144 1 6.73415 7.20223 3.38456
148 1 6.86322 7.16758 4.7951
154 1 8.29179 7.10191 5.39706
153 1 8.46574 6.67189 6.70171
162 1 8.55999 7.72471 7.70102
159 1 9.0717 7.13674 9.0521
81 1 6.07373 6.9246 11.6058
160 1 7.76544 7.28449 9.66164
74 1 6.2754 7.05888 9.33335
169 1 6.73524 9.535 2.01797
170 1 6.54434 10.1237 3.20578
174 1 7.68418 10.883 3.54092
179 1 9.00369 10.8868 3.40201
181 1 8.63258 11.3425 8.52296
177 1 8.6873 9.90119 6.02846
180 1 7.93989 10.1339 8.5185
178 1 8.7575 11.3857 6.11463
184 1 8.2849 9.13645 7.45377
104 1 6.84495 9.77327 9.69682
110 1 7.01349 9.71793 11.0525
188 1 8.11984 9.32588 11.7727
115 1 11.2057 1.84466 2.00238
112 1 10.3026 1.60921 0.720644
114 1 9.11765 1.99556 0.0458736
116 1 12.2945 1.13901 2.68661
111 1 10.2793 2.1144 3.09415
120 1 9.88516 1.02467 4.0596
126 1 10.923 0.0636912 4.41095
127 1 10.4496 0.255225 7.90982
189 1 11.8893 -0.148219 7.68348
131 1 9.81888 0.947109 8.99112
135 1 10.4419 2.24998 9.38202
105 1 12.0667 -0.13643 10.6974
119 1 10.1466 4.80371 1.0654
117 1 11.3943 4.5879 1.77053
113 1 9.87264 4.53445 -0.281598
128 1 10.4606 3.38702 3.87894
124 1 9.68318 3.66496 5.03522
146 1 11.0841 4.64236 3.29572
157 1 11.192 5.86351 4.02733
122 1 11.9157 3.60418 5.98263
161 1 10.4668 5.05252 8.59201
155 1 9.90789 4.79014 7.24571
125 1 10.4324 3.78556 6.15383
163 1 9.41961 5.7524 9.29367
132 1 11.5054 3.00592 9.89631
133 1 11.623 4.36975 9.07305
168 1 11.5016 7.68434 0.761539
149 1 9.39308 7.813 4.80818
138 1 9.98053 6.90888 3.83245
158 1 10.6822 6.9456 10.8271
164 1 10.1491 7.86724 9.69679
79 1 11.2402 7.08424 12.0724
172 1 10.0139 10.2111 4.18586
173 1 10.8565 11.1022 4.85372
175 1 9.34681 9.22645 4.91338
176 1 11.9487 10.7255 5.89247
182 1 11.7027 9.81792 8.25326
186 1 11.8603 10.9226 7.32003
185 1 9.37914 11.731 7.40334
187 1 10.6162 10.1198 10.6197
190 1 11.4785 11.1793 10.9803
191 1 9.50075 9.86881 11.5037
183 1 10.7837 9.2696 9.3948
ITEM: TIMESTEP
4000
ITEM: NUMBER OF ATOMS
191
ITEM: BOX BOUNDS pp pp pp
-2.0063250528433690e-01 1.2200632505284307e+01
-2.0063250528433690e-01 1.2200632505284307e+01
-2.0063250528433690e-01 1.2200632505284307e+01
ITEM: ATOMS id type x y z
4 1 1.72105 2.69508 1.08448
12 1 0.83193 0.529124 4.90641
118 1 -0.190917 0.627621 3.93718
31 1 2.74128 1.16266 8.73284
32 1 1.31579 0.842536 8.58051
11 1 0.577116 0.689442 7.32794
17 1 2.41795 2.14115 6.15361
13 1 1.1353 1.36308 6.20681
28 1 0.509686 0.867993 9.67185
38 1 2.63623 2.03449 10.9186
30 1 1.36811 2.74476 10.8928
29 1 0.314401 2.26396 10.1871
36 1 2.74199 0.770046 11.745
7 1 0.211481 4.56364 1.37174
6 1 0.800844 3.62005 0.556082
45 1 0.965399 5.39087 2.23965
14 1 2.1598 3.51945 6.56936
63 1 0.57245 5.04915 8.64384
22 1 0.884211 4.06769 6.28093
34 1 1.18903 3.96241 11.6196
64 1 1.4613 5.08895 10.9043
66 1 1.73542 4.75836 9.54392
39 1 0.163852 8.3495 0.91843
42 1 1.34267 7.87958 1.59679
43 1 2.55832 7.8972 0.645799
54 1 2.61974 6.88074 5.43709
50 1 1.96319 8.6102 3.84293
40 1 1.08778 6.38125 3.23949
52 1 0.99253 6.58322 5.64057
53 1 0.148937 6.28334 4.48078
41 1 1.51837 7.60221 2.87565
108 1 1.33541 8.44293 8.7398
67 1 1.86621 7.1821 8.45101
109 1 0.0827629 8.80294 7.98987
59 1 0.264636 6.60978 6.85163
71 1 1.00934 6.14654 7.91507
77 1 1.62576 6.4686 11.3045
76 1 2.26266 7.7256 11.6779
75 1 1.59506 8.9686 11.17
89 1 1.47636 10.3859 0.917313
84 1 1.15701 10.6336 2.26914
80 1 0.864125 9.46889 0.0553781
83 1 1.90473 9.95027 3.237
21 1 1.4911 11.7401 4.98366
96 1 0.796432 10.6187 5.3368
103 1 2.9621 11.9449 11.2045
107 1 1.80801 9.32515 9.8409
3 1 4.38186 0.0013872 1.80753
1 1 3.5921 1.25411 1.57809
2 1 5.74155 0.190204 2.12105
5 1 2.91098 2.48919 1.75061
16 1 3.92573 -0.0172498 5.39048
18 1 3.5808 1.43458 5.76236
26 1 5.86554 0.669677 8.85612
24 1 5.72948 2.40908 8.66889
10 1 4.87542 2.13797 6.20439
9 1 5.68352 2.71137 7.24538
33 1 3.60351 -0.0657711 8.90504
25 1 3.27653 2.27328 9.62584
48 1 4.92761 4.75317 0.70978
8 1 3.71965 3.54863 2.4055
46 1 4.68295 4.55126 2.14728
44 1 5.64083 5.32754 2.88338
58 1 6.00973 4.72731 5.73106
70 1 3.00578 5.03208 8.84842
57 1 3.07612 4.89343 7.1898
51 1 3.66812 5.86672 6.17695
78 1 5.24505 4.04161 11.8801
68 1 4.24687 4.41689 9.60522
69 1 4.99115 4.86371 10.6712
37 1 5.95793 2.93153 11.8038
27 1 4.35409 3.04202 9.34846
47 1 4.58303 7.78236 2.69
82 1 4.63709 8.58563 1.44191
90 1 3.42605 8.90071 0.825187
49 1 5.6279 6.8055 2.80418
92 1 4.30411 8.32049 3.93153
60 1 3.121 8.04635 4.51901
56 1 5.14947 6.04182 5.73948
65 1 3.09858 6.84846 8.82558
62 1 5.48722 7.38561 8.31143
61 1 5.88476 8.16092 7.0593
73 1 4.18793 7.69805 8.87666
72 1 5.77937 6.0737 10.6357
88 1 3.62414 11.1345 2.0744
91 1 5.78791 9.24872 0.960265
85 1 2.92687 10.2855 1.0336
95 1 5.43229 9.36808 4.28345
94 1 5.23732 11.4408 5.3287
97 1 5.27329 10.1368 5.45803
20 1 2.87711 11.6261 4.5479
87 1 3.14851 10.8142 3.3998
93 1 5.43557 9.57892 6.75732
100 1 5.37922 10.599 7.88523
106 1 4.98739 12.0023 8.38649
98 1 3.26829 11.3978 9.89996
99 1 3.05531 10.0055 9.65845
101 1 5.50859 9.84962 9.13598
102 1 4.25415 9.13223 9.38263
114 1 9.07939 2.12836 0.179532
123 1 8.59284 0.675128 4.82551
19 1 6.19463 0.290122 3.43952
137 1 7.16702 0.520691 9.47655
129 1 8.4883 0.165868 9.25072
134 1 7.03178 2.73587 10.9538
147 1 7.94545 4.85236 2.50344
139 1 9.07549 5.55697 1.84974
156 1 6.97345 4.36894 4.64302
150 1 8.25896 3.77747 5.10985
141 1 6.76756 4.73486 3.29355
151 1 8.63545 5.26424 6.98657
166 1 7.64601 4.29429 7.59641
23 1 6.38902 4.02747 7.03411
167 1 7.74961 3.95799 8.93917
165 1 8.55483 4.808 9.98028
136 1 8.95503 4.11668 11.1468
130 1 8.38076 2.82759 11.482
35 1 6.80625 3.01137 9.52384
171 1 7.91139 8.61045 1.7128
140 1 8.04153 8.3702 0.264654
142 1 8.13571 7.54515 2.59294
145 1 7.71719 7.00331 -0.126685
144 1 6.99818 7.20889 3.44049
148 1 7.1024 7.08955 4.85972
154 1 8.41415 6.94683 5.31779
55 1 6.07309 7.22492 5.79003
153 1 8.46038 6.56439 6.69435
162 1 8.51593 7.66572 7.62763
159 1 8.83382 7.29957 8.90458
81 1 6.75648 6.16678 11.7308
160 1 7.4732 7.31212 9.61236
74 1 6.16703 6.85972 9.48182
169 1 6.71355 9.24149 2.05189
170 1 6.57192 9.63085 3.40577
174 1 7.72179 10.4236 3.51841
179 1 9.0311 10.7364 3.31416
121 1 7.74213 12.1681 5.37094
15 1 6.42518 12.1649 4.75801
181 1 8.59554 11.2157 8.53677
177 1 8.67743 9.69316 6.25458
180 1 8.04498 9.94386 8.58434
178 1 8.42302 11.1745 6.21289
184 1 8.37941 9.08393 7.55971
104 1 6.84229 9.85029 9.63661
110 1 6.98783 9.69797 11.0958
188 1 8.21171 9.33817 11.6772
86 1 6.05791 9.92742 12.0628
115 1 10.8232 1.79741 2.14803
112 1 10.0713 1.63622 0.910312
116 1 11.9874 1.26981 2.64027
111 1 10.0346 2.14874 3.31906
120 1 9.89984 1.06806 4.4079
126 1 10.9565 -0.000547576 4.42807
127 1 10.2407 0.379045 7.71417
189 1 11.5663 0.0227912 7.31739
131 1 9.6259 1.0429 8.86044
135 1 10.4767 2.0612 9.36348
105 1 11.9084 -0.00654054 10.1901
119 1 10.061 4.90496 1.01037
117 1 11.2787 4.54 1.65019
128 1 10.2872 3.46528 3.69438
124 1 9.71142 3.75907 4.96549
146 1 10.9823 4.56272 3.11248
157 1 11.3187 5.8905 3.92462
122 1 12.0835 3.89324 5.95047
125 1 10.6729 4.17218 6.03322
161 1 10.42 4.99526 8.39011
155 1 10.1093 4.91454 7.06802
133 1 11.678 4.53988 8.85366
163 1 9.49813 5.674 9.27359
132 1 11.6609 3.07913 9.4645
113 1 9.77172 4.44821 12.1314
168 1 11.5001 7.50143 0.490721
143 1 9.33132 6.78973 2.70834
149 1 9.52674 7.73632 4.75052
138 1 10.2389 6.98665 3.82743
152 1 12.0523 7.79087 7.01591
158 1 10.6853 7.49268 10.3905
164 1 9.95134 8.20208 9.37131
79 1 10.8854 7.49214 11.7223
172 1 10.0868 10.1022 4.19708
173 1 11.0459 11.0229 4.76399
176 1 11.8802 10.5202 5.66466
175 1 9.53395 9.10728 5.13363
182 1 11.428 9.81539 8.11475
186 1 11.5097 10.8278 7.03018
185 1 9.24958 11.8016 7.30067
183 1 10.4363 9.50477 9.13668
187 1 10.2289 10.3564 10.2982
190 1 10.9477 11.5904 10.4243
191 1 9.17297 10.2272 11.2173
ITEM: TIMESTEP
5000
ITEM: NUMBER OF ATOMS
191
ITEM: BOX BOUNDS pp pp pp
-1.2596442514382836e-01 1.2125964425143851e+01
-1.2596442514382836e-01 1.2125964425143851e+01
-1.2596442514382836e-01 1.2125964425143851e+01
ITEM: ATOMS id type x y z
4 1 1.38569 2.54224 1.65149
5 1 2.63988 2.36985 2.08067
116 1 0.0137145 1.52968 2.39713
12 1 1.15522 0.594551 4.67967
118 1 0.233454 0.73724 3.65061
13 1 1.3525 1.38952 5.86206
17 1 2.54702 2.17242 5.98413
31 1 2.86008 1.02573 8.41294
32 1 1.32705 0.92952 8.227
11 1 0.551387 0.817529 7.04364
28 1 0.611335 1.02804 9.39563
38 1 2.62493 1.91981 10.5259
30 1 1.41311 2.62832 10.7898
29 1 0.371575 2.34271 9.9738
36 1 2.83998 0.816496 11.4253
105 1 0.00311475 0.0266633 10.0388
7 1 0.28243 4.83332 1.39137
6 1 0.744721 3.62778 0.745314
45 1 1.36027 5.61318 2.08524
14 1 2.26486 3.52599 6.47222
63 1 0.49857 5.12946 8.83929
22 1 0.942493 3.88554 6.33447
34 1 1.32579 3.72318 11.7145
64 1 1.6933 4.92777 10.9865
66 1 1.55707 4.64973 9.60443
39 1 0.180761 8.85075 0.8902
42 1 1.26966 8.1444 1.46495
43 1 2.38725 7.9072 0.688106
41 1 1.40329 7.84978 2.7768
54 1 2.53727 6.74314 5.33057
50 1 2.14683 8.62292 3.72765
40 1 1.05287 6.52552 3.11359
52 1 1.21469 6.4117 5.44447
53 1 0.407874 6.30026 4.24885
108 1 1.16979 8.59366 8.70645
67 1 1.70672 7.20504 8.52593
109 1 0.0928267 8.7306 7.81589
59 1 0.474444 6.62807 6.61717
71 1 0.726704 6.35595 8.01489
77 1 1.84525 6.22319 11.3198
76 1 2.04602 7.64797 11.5577
75 1 1.34584 8.93717 11.1674
89 1 1.70535 10.4308 0.849685
84 1 1.3222 10.5743 2.28437
80 1 0.761652 9.70308 -0.0458287
83 1 2.19143 9.98729 3.31307
21 1 1.85772 11.6035 4.7406
96 1 1.16916 10.6873 5.55163
107 1 1.67184 9.29297 9.78431
3 1 4.51178 0.140038 1.88871
1 1 3.47863 1.23696 1.74937
2 1 5.80103 0.480795 2.39565
16 1 4.24525 0.0737184 5.3669
18 1 3.99674 1.40517 5.76796
10 1 5.15171 2.05215 6.25333
24 1 5.74089 2.27528 8.62226
26 1 5.93556 0.829154 8.83112
9 1 5.76389 2.7577 7.25762
25 1 3.36612 1.93975 9.36793
27 1 4.41248 2.94493 9.1411
37 1 5.90317 2.93569 11.8464
48 1 4.41244 4.64656 0.885313
8 1 3.5809 3.37752 2.7272
46 1 4.26682 4.47108 2.20222
56 1 4.99757 5.84027 5.83031
58 1 5.81766 4.73845 5.59156
44 1 5.35168 5.01557 2.91462
70 1 3.23151 5.2006 8.62576
57 1 3.15845 4.72818 7.10287
51 1 3.57031 5.81064 6.12262
78 1 4.99422 4.16297 11.9665
68 1 4.24166 4.35862 9.50858
69 1 4.87658 4.86285 10.6588
72 1 5.84421 5.91749 10.4065
47 1 4.69771 7.72393 2.68998
82 1 4.62004 8.46843 1.4337
90 1 3.3839 8.82558 0.958327
92 1 4.39928 8.36032 4.06757
55 1 5.73554 7.0729 6.01924
60 1 3.06427 7.9408 4.57253
49 1 5.52116 6.52995 3.09414
65 1 2.94241 6.69206 8.65614
62 1 5.40906 7.36712 8.35939
61 1 5.53989 8.22405 6.92713
73 1 4.10392 7.63254 8.9444
102 1 4.12234 8.99817 9.29057
88 1 3.83901 11.1251 1.91826
91 1 5.67172 9.20814 0.870554
85 1 3.18202 10.24 0.995936
95 1 5.27047 9.33401 4.3349
94 1 5.44426 11.5353 5.42976
97 1 5.23447 10.1103 5.46636
20 1 3.27358 11.5438 4.51399
87 1 3.38954 10.8674 3.27723
93 1 5.34518 9.5709 6.78547
100 1 5.40153 10.5218 7.97409
106 1 5.11182 11.9722 8.23283
33 1 3.59812 12.0892 8.62232
101 1 5.47448 9.63618 9.12425
98 1 3.13158 11.2349 9.7855
99 1 2.89863 9.80017 9.59842
103 1 2.99853 11.7872 11.0546
86 1 5.90348 9.57376 11.7818
123 1 8.80837 0.642221 4.44063
19 1 6.50616 0.356389 3.54462
121 1 7.94758 -0.0347178 5.23776
137 1 7.05567 0.559294 9.57941
129 1 8.40994 0.320163 9.42407
134 1 7.15097 2.83056 10.9927
147 1 7.8049 4.37118 2.36759
139 1 9.0117 5.15331 2.17607
156 1 6.78483 4.29851 4.5958
150 1 8.14816 4.23427 4.94654
141 1 6.62643 4.38308 3.20066
151 1 8.46909 5.44258 7.15134
166 1 7.35809 4.6703 7.78264
23 1 6.23637 4.1078 6.94998
165 1 8.4823 4.92561 10.0111
136 1 8.96917 4.36267 11.1979
35 1 6.8869 2.96199 9.53027
130 1 8.46287 3.00026 11.5991
167 1 7.59506 4.2024 9.07823
171 1 7.74546 8.29597 1.71864
140 1 8.08121 8.02376 0.416428
142 1 7.89595 7.30563 2.79063
145 1 7.6257 6.89897 -0.10393
143 1 8.93327 6.3989 2.93051
144 1 6.70346 7.00197 3.679
148 1 6.80294 7.16802 5.09002
154 1 8.13346 7.14642 5.5349
153 1 8.25311 6.77471 6.82856
162 1 8.75306 7.74521 7.67501
159 1 8.99234 7.24828 8.99525
81 1 6.56325 6.28558 11.6397
160 1 7.5919 7.27423 9.49862
74 1 6.29074 6.72386 9.3683
169 1 6.70985 9.25718 1.87825
170 1 6.429 9.7975 3.21199
174 1 7.73181 10.4776 3.44031
15 1 6.58287 12.1546 4.82119
181 1 8.46576 11.4069 8.57986
177 1 8.71061 9.75669 6.30836
180 1 7.93573 10.0539 8.66852
178 1 8.45389 11.2432 6.13818
184 1 8.53792 9.11272 7.60206
104 1 6.89141 9.66292 9.53734
110 1 7.07538 9.41276 10.9921
188 1 8.35103 9.17918 11.8016
115 1 11.0002 1.89327 1.95922
112 1 10.3246 1.8196 0.720473
114 1 9.24008 1.91048 -0.0973464
111 1 10.2371 2.24057 3.19319
120 1 10.0951 1.1242 4.0237
126 1 11.1272 0.0793549 4.10126
127 1 10.1883 0.437298 7.76077
189 1 11.5463 0.133453 7.29854
135 1 10.2499 2.16957 9.4681
131 1 9.67802 1.02027 9.07413
119 1 10.0755 5.06394 1.13574
117 1 11.2808 4.85724 1.90738
128 1 10.1851 3.55473 3.75219
124 1 9.53186 3.77172 4.96203
146 1 11.0022 4.67865 3.27215
157 1 11.1893 5.87908 4.09539
161 1 10.3154 5.14653 8.47877
155 1 9.77655 4.92352 7.17415
122 1 11.8754 4.02405 6.00797
125 1 10.362 4.19056 6.10779
133 1 11.5281 4.37988 8.87223
163 1 9.38247 5.86394 9.38352
132 1 11.4263 3.05605 9.58108
113 1 9.92761 5.20131 11.9343
168 1 11.1349 8.41689 0.805162
149 1 9.31211 7.74096 4.88873
138 1 9.9428 6.78648 3.99406
152 1 11.9614 7.82323 6.73509
158 1 10.7931 7.38515 10.7315
164 1 10.0908 8.11385 9.62939
79 1 10.8096 7.64523 12.0003
172 1 10.0865 10.106 4.36612
173 1 11.1686 11.025 4.64363
176 1 12.0672 10.7142 5.77386
175 1 9.62889 9.12195 5.25344
179 1 9.07155 10.3833 3.4598
182 1 11.3798 9.73666 8.01963
186 1 11.5318 10.8419 7.13926
185 1 9.0253 11.7604 7.3209
187 1 10.5744 10.3084 10.5033
190 1 11.5052 11.3581 10.6564
191 1 9.58593 9.94064 11.4837
183 1 10.5333 9.49109 9.31821
ITEM: TIMESTEP
6000
ITEM: NUMBER OF ATOMS
191
ITEM: BOX BOUNDS pp pp pp
-1.0693717898874580e-01 1.2106937178988737e+01
-1.0693717898874580e-01 1.2106937178988737e+01
-1.0693717898874580e-01 1.2106937178988737e+01
ITEM: ATOMS id type x y z
4 1 1.26515 2.25908 1.7045
5 1 2.7585 2.3639 2.05696
116 1 0.258247 1.43026 2.32301
12 1 1.22612 0.735395 4.71545
118 1 0.246002 0.687675 3.67357
31 1 2.71825 0.973572 8.57407
32 1 1.25162 0.952481 8.50228
11 1 0.612259 0.831511 7.16299
17 1 2.47097 2.18554 6.31085
13 1 1.28408 1.46334 6.01943
28 1 0.466738 1.05225 9.66238
38 1 2.6775 1.95023 10.793
30 1 1.3892 2.69041 10.8646
29 1 0.187328 2.31806 10.1766
36 1 2.83403 0.788238 11.5202
7 1 0.254833 4.5787 1.49349
6 1 0.854482 3.41205 0.854507