ITEM: TIMESTEP
1000
ITEM: NUMBER OF ATOMS
191
ITEM: BOX BOUNDS pp pp pp
0.0000000000000000e+00 1.2000000000000000e+01
0.0000000000000000e+00 1.2000000000000000e+01
0.0000000000000000e+00 1.2000000000000000e+01
ITEM: ATOMS id type x y z
12 1 1.20509 0.848646 4.8824
1 1 2.45416 2.21262 3.44646
118 1 0.0568909 0.931156 4.21542
31 1 2.7963 1.20012 8.59879
32 1 1.33362 1.11411 8.47168
11 1 0.524598 1.20419 7.34151
17 1 2.71238 2.40746 6.16634
13 1 1.38231 1.67759 6.10224
28 1 0.600435 1.06936 9.68613
29 1 0.380463 2.49177 10.0643
30 1 1.54051 2.88833 10.6729
38 1 2.76966 2.1392 10.5977
4 1 2.18611 3.42645 1.49308
6 1 1.37529 4.1638 0.681185
7 1 0.316389 4.7799 1.23673
5 1 2.72351 3.38718 2.80547
53 1 0.358511 5.83537 4.1516
14 1 2.48962 3.77126 6.47623
22 1 1.04066 4.12647 6.92577
63 1 0.861504 4.89394 8.19573
34 1 1.60511 4.1806 11.3394
64 1 1.84804 5.17285 10.4568
66 1 1.97643 4.87993 9.13738
39 1 0.181589 8.50532 0.712513
43 1 2.65505 8.15867 0.868042
42 1 1.41328 7.99508 1.5577
45 1 0.410238 6.0196 1.6437
40 1 0.607622 6.50916 2.98891
41 1 1.37971 7.70322 2.91852
54 1 2.3679 6.52629 5.21292
50 1 2.14686 8.46843 3.69532
52 1 1.04645 6.21113 5.25484
60 1 2.43505 7.90596 4.88676
59 1 0.319578 6.54721 6.41356
67 1 1.82448 7.31926 8.10585
71 1 0.824954 6.39916 7.65354
108 1 1.50378 8.72625 8.5489
75 1 1.63839 8.73584 10.9
76 1 2.39605 7.75422 11.4558
77 1 2.36185 6.3648 11.1126
89 1 1.68557 10.4378 0.778156
84 1 1.26087 10.293 2.26055
96 1 1.39937 10.5244 5.80047
21 1 1.92503 11.6793 5.0829
83 1 1.97272 9.86486 3.45811
109 1 0.460584 9.13924 7.92927
107 1 1.96788 9.23301 9.68906
80 1 0.964113 9.47731 11.8748
3 1 3.46182 1.23958 3.5408
16 1 4.12741 0.164967 5.50129
2 1 4.94593 1.47411 3.18049
9 1 5.79569 2.82726 7.153
24 1 5.70492 2.43076 8.65892
26 1 5.83625 0.933983 8.58776
10 1 5.33926 2.06308 6.16372
18 1 3.95423 1.52412 6.0336
25 1 3.47206 2.22466 9.36298
36 1 3.1563 1.05003 11.3995
48 1 4.33373 4.65548 0.709691
44 1 5.99016 5.22315 2.44868
46 1 4.83482 4.57961 2.03733
8 1 3.91788 4.06314 2.96916
58 1 5.89245 4.77236 5.62939
56 1 5.05263 5.94244 5.47293
51 1 3.61934 5.79543 5.77172
70 1 3.40603 5.25056 8.37877
57 1 3.29911 4.88631 6.83742
78 1 5.12797 4.29346 11.5245
68 1 4.40579 4.42649 9.42396
69 1 5.059 5.21573 10.3426
27 1 4.47806 3.0505 9.22505
47 1 5.19546 7.94796 2.43487
82 1 4.90455 8.78538 1.39948
92 1 5.0144 8.61295 3.70179
55 1 5.95341 7.18716 5.53858
73 1 4.19161 7.74413 8.55678
62 1 5.53684 7.49362 7.95057
65 1 3.19209 6.8109 8.4114
61 1 5.63671 8.06901 6.60218
72 1 5.55993 6.5066 10.3029
81 1 5.54413 7.76087 11.0694
88 1 3.49987 11.0428 2.1632
85 1 3.16455 10.4098 1.00517
91 1 5.91697 9.71594 1.04399
90 1 3.67653 9.11918 1.0001
94 1 5.51007 11.7138 5.47563
97 1 5.54044 10.2859 5.25334
87 1 3.11333 10.7168 3.43176
20 1 3.18504 11.8843 4.2963
95 1 5.89847 9.73487 4.04418
93 1 5.64775 9.60237 6.45837
100 1 5.39615 10.4731 7.59658
101 1 5.51693 9.71445 8.84227
106 1 4.93343 11.8978 7.96221
33 1 3.59975 11.9983 8.55921
98 1 3.50555 11.1841 9.68144
103 1 3.22428 11.7935 10.9441
99 1 3.27887 9.79207 9.59418
102 1 4.32834 9.07969 9.01661
114 1 8.60925 1.0636 0.341457
15 1 6.28686 1.03729 5.36838
19 1 6.14573 1.31933 3.9212
121 1 7.76238 0.614062 5.91285
128 1 8.88866 2.97665 3.70562
129 1 8.35478 0.18746 9.37563
130 1 8.26103 2.13424 11.4211
137 1 7.02759 0.504277 9.32774
134 1 6.96563 2.54662 10.8961
35 1 6.87822 2.8466 9.43909
147 1 8.12484 3.78741 2.81579
139 1 8.95702 4.71955 2.11283
141 1 6.86754 4.534 3.29409
150 1 8.14886 4.52859 5.47536
156 1 6.87198 4.6036 4.71775
151 1 8.27125 5.07366 6.80782
166 1 7.22697 4.60737 7.64401
23 1 6.11789 4.13615 6.99852
167 1 7.57641 4.01855 8.90824
165 1 8.33637 4.89564 9.7276
37 1 6.09022 3.28999 11.648
49 1 6.32647 6.66491 2.15676
140 1 7.99375 7.68454 0.383597
142 1 8.58072 7.38481 2.5869
145 1 6.96274 6.67636 0.681379
171 1 8.11027 8.45739 1.63405
144 1 7.31434 7.04926 3.2988
148 1 7.18411 7.1601 4.73754
154 1 8.35935 7.1502 5.53352
153 1 8.1698 6.55922 6.73473
162 1 8.58165 7.49694 7.74916
184 1 8.14193 8.93666 7.51019
188 1 7.99517 8.26872 11.0671
74 1 6.48352 6.90777 9.14608
160 1 7.81743 7.2395 9.89896
169 1 7.09657 9.53003 1.87342
174 1 7.97704 10.9841 3.56656
170 1 6.93637 10.1165 3.21665
177 1 8.34338 9.55504 6.12299
178 1 8.10362 11.1346 6.34415
180 1 7.89147 9.70405 8.60484
181 1 8.60636 10.9521 8.71045
185 1 8.91145 11.4014 7.40967
104 1 6.73251 9.58153 9.41521
110 1 6.49943 9.08283 10.8292
86 1 6.07477 10.1283 11.7812
115 1 10.3233 1.23323 2.44296
116 1 11.6482 0.993539 2.82226
112 1 9.70433 1.22206 1.2498
111 1 9.4857 1.66562 3.53701
126 1 10.9251 0.207048 4.75638
120 1 9.76984 1.11383 4.82804
123 1 9.07273 1.35593 5.95414
127 1 9.85358 0.871564 7.35898
189 1 11.3665 0.497339 7.24559
131 1 9.26943 1.27343 8.8753
135 1 9.92736 2.45712 9.72437
136 1 9.31994 2.91918 10.9834
105 1 11.8296 0.0101488 10.1355
119 1 10.0568 4.12402 1.1601
117 1 11.2913 4.10232 1.87838
157 1 11.3328 4.9189 4.17809
124 1 9.18021 3.70881 5.01453
146 1 11.3855 3.97031 3.30822
138 1 10.2186 5.74187 3.89366
161 1 10.2777 4.94223 8.31128
155 1 9.72347 4.77316 7.05922
133 1 11.4486 4.36918 8.8939
122 1 11.7791 3.7662 6.22739
125 1 10.4313 4.01175 6.05778
163 1 9.44619 5.61201 9.18789
113 1 9.86272 3.82653 11.855
132 1 11.2015 3.12199 9.46298
143 1 9.41135 6.11047 2.82495
168 1 11.139 7.60473 0.563201
149 1 9.69535 7.6531 5.41856
152 1 10.827 7.13612 6.19421
159 1 9.168 7.09184 8.9772
158 1 11.2905 7.02504 10.2119
164 1 10.4181 7.84684 9.49228
79 1 11.2299 6.74242 11.5198
172 1 10.0074 10.0659 4.56232
173 1 11.0291 10.7553 5.07982
175 1 9.42791 9.05859 5.30838
179 1 9.28849 10.6904 3.58403
182 1 11.2861 9.8532 8.11419
186 1 11.4828 11.032 7.29613
176 1 11.9937 10.5963 6.03074
187 1 10.2157 9.88624 10.5578
190 1 10.9942 11.1135 10.7664
183 1 10.5117 9.3033 9.2034
191 1 9.03 9.33326 11.045
ITEM: TIMESTEP
2000
ITEM: NUMBER OF ATOMS
191
ITEM: BOX BOUNDS pp pp pp
-1.1193858346343556e-01 1.2111938583463434e+01
-1.1193858346343556e-01 1.2111938583463434e+01
-1.1193858346343556e-01 1.2111938583463434e+01
ITEM: ATOMS id type x y z
4 1 1.85432 2.84762 1.4058
12 1 1.22351 0.634249 4.81948
118 1 0.239352 0.38954 3.88097
13 1 1.27932 1.41647 6.04997
31 1 2.73168 0.962045 8.68054
32 1 1.23106 0.777337 8.60355
11 1 0.524779 0.835647 7.27393
17 1 2.53071 2.24025 6.04133
28 1 0.21907 0.901105 9.66572
38 1 2.69204 2.05402 10.758
30 1 1.46154 2.75141 10.9291
29 1 0.298035 2.42373 10.0715
7 1 0.417267 4.76187 1.45637
6 1 1.22032 3.92915 0.634241
45 1 0.978664 5.8071 2.07765
14 1 2.23498 3.61064 6.62687
22 1 0.843869 3.89062 7.0706
63 1 0.685772 4.72888 8.25521
34 1 1.50641 4.03286 11.522
64 1 1.92601 5.10093 10.6809
66 1 1.86578 4.73936 9.19746
39 1 0.20241 8.67978 1.03685
43 1 2.40198 8.07361 0.723679
42 1 1.39996 8.0894 1.6561
54 1 2.41018 6.58085 5.54485
50 1 2.12954 8.66775 3.78534
52 1 0.954381 6.26372 5.63415
40 1 0.99665 6.5454 3.21884
60 1 2.58759 7.9244 4.99831
53 1 0.36807 6.10316 4.28419
41 1 1.43956 7.75248 2.9334
108 1 1.32364 8.55417 8.5718
67 1 1.76618 7.13996 8.17476
71 1 0.593839 6.29444 7.89337
109 1 0.08437 8.95102 7.96829
77 1 2.13814 6.35311 11.2977
76 1 1.76734 7.68553 11.6132
75 1 1.25301 8.89569 11.0501
89 1 1.41141 10.6353 0.761463
84 1 1.23605 10.6219 2.19435
80 1 0.72627 9.69788 0.0280362
83 1 2.03638 10.1184 3.21509
21 1 1.82388 11.6732 5.33769
96 1 1.18803 10.5347 5.71541
107 1 1.8338 9.19827 9.8076
3 1 4.64834 0.489404 2.02739
1 1 3.84325 1.52931 1.83901
2 1 5.88688 0.661947 2.57765
5 1 3.10054 2.54557 2.15875
16 1 4.17402 0.039265 5.51804
18 1 3.89272 1.43512 5.82817
26 1 5.81724 0.832148 8.82509
24 1 5.58225 2.32505 8.63725
10 1 5.04712 1.99079 6.21107
9 1 5.5854 2.91318 7.19477
25 1 3.21956 2.09618 9.43193
36 1 2.88785 0.921211 11.6794
48 1 4.07681 4.85294 0.608947
44 1 5.60654 5.27114 2.74039
46 1 4.55512 4.59132 1.97313
8 1 3.82612 3.58658 2.6918
51 1 3.54899 5.81561 5.95831
56 1 4.99836 5.67419 5.6174
58 1 5.92527 4.54461 5.71351
70 1 3.159 5.18215 8.53383
57 1 3.17826 4.63688 6.94897
78 1 4.83089 4.65695 11.7246
68 1 4.12159 4.48934 9.32605
69 1 4.76837 5.18162 10.3761
37 1 5.70949 3.54835 11.7193
27 1 4.26758 3.04243 9.19646
47 1 5.02994 7.81474 2.39458
82 1 4.71909 8.77831 1.40749
92 1 5.12413 8.42379 3.69243
55 1 5.8413 7.10324 5.52356
73 1 4.12569 7.75599 8.55996
62 1 5.49154 7.5021 7.99615
61 1 5.78201 8.04157 6.7213
65 1 3.17006 6.69412 8.39444
72 1 5.33569 6.47152 10.061
81 1 5.48681 7.66233 10.9296
102 1 4.23772 9.05505 9.24081
88 1 3.7774 11.2447 2.1301
85 1 3.17451 10.7694 0.678583
91 1 5.79933 9.67087 1.08929
90 1 3.32673 9.13535 0.824801
97 1 5.58613 10.292 5.28452
94 1 5.57214 11.7079 5.46604
20 1 3.19264 11.6487 4.67296
87 1 3.25054 10.9219 3.33789
95 1 5.77096 9.61516 4.06557
93 1 5.37399 9.55114 6.54134
100 1 5.25816 10.8232 7.84822
101 1 5.39379 9.91844 8.96066
33 1 3.5614 12.0642 8.9901
106 1 4.83627 12.1094 8.3312
99 1 3.2185 9.65874 9.94045
98 1 3.2971 11.1687 10.1127
103 1 3.12121 11.6827 11.4643
86 1 5.87964 9.99442 11.9158
114 1 8.67582 1.8468 0.396298
15 1 6.79865 0.123683 4.99095
19 1 6.76086 0.66463 3.52955
121 1 8.15437 -0.014406 5.57752
129 1 8.31287 0.451611 9.54009
130 1 8.05632 2.54381 11.5586
137 1 6.87671 0.574211 9.84711
134 1 6.72469 2.8194 11.0258
147 1 7.86082 4.71861 2.39946
141 1 6.7159 4.53052 3.28076
150 1 8.28858 3.66873 4.88273
156 1 6.96182 4.24789 4.73746
151 1 8.55233 5.19002 7.01709
166 1 7.4734 4.45786 7.70816
23 1 6.28521 4.1366 7.05372
167 1 7.58824 3.95984 9.05279
165 1 8.67542 4.39939 9.83249
35 1 6.51488 3.12143 9.52696
171 1 8.01143 8.50257 1.5446
140 1 7.63916 7.67145 0.325364
142 1 8.26403 7.58822 2.5974
145 1 6.72169 6.67253 0.646207
49 1 6.01352 6.68577 2.36335
144 1 7.18691 7.1725 3.2789
148 1 7.08579 6.96643 4.78256
154 1 8.37592 7.04472 5.48757
153 1 8.42211 6.59597 6.773
162 1 8.48867 7.58229 7.70177
184 1 8.40072 9.01998 7.66104
188 1 7.8114 8.29148 11.1724
160 1 7.61539 7.3328 9.84196
74 1 6.32481 6.89054 9.09888
159 1 8.94857 7.12381 9.12284
110 1 6.57783 9.10696 10.9765
169 1 6.97878 9.47833 1.81434
174 1 8.14236 10.8058 3.51797
170 1 6.97398 10.0021 3.26561
177 1 8.83546 9.71005 6.3644
178 1 8.70408 11.1377 6.3409
180 1 7.92572 9.91469 8.77496
181 1 8.53229 11.2848 8.73459
104 1 6.64644 9.6823 9.52549
191 1 8.95292 9.39253 10.8906
115 1 10.8503 1.48087 2.0384
112 1 9.78014 1.45707 1.01937
116 1 12.1652 0.920471 2.64714
111 1 10.2079 2.0123 3.24841
126 1 11.2161 0.0717175 4.44833
120 1 10.1543 1.01262 4.37919
123 1 9.06933 1.0146 5.28647
127 1 10.2285 0.607235 7.78216
189 1 11.4944 0.127902 7.40033
135 1 10.0627 2.47466 9.78313
131 1 9.48884 1.36017 9.08492
119 1 10.0578 4.70476 1.07248
117 1 11.3093 4.55175 1.70307
139 1 9.07107 5.35234 1.95483
157 1 11.2358 5.6642 3.87851
124 1 9.72873 3.65451 4.9634
146 1 11.1062 4.39586 3.1356
128 1 10.5511 3.2623 3.75747
161 1 10.4748 5.09296 8.49885
155 1 9.97426 4.80063 7.16137
133 1 11.5847 4.35288 9.01105
125 1 10.6201 4.10112 6.18185
122 1 11.8912 3.72411 6.35443
163 1 9.28895 5.45997 9.16436
113 1 9.74334 4.28141 12.0346
136 1 9.27345 3.43103 10.7648
132 1 11.3958 3.06801 9.5379
143 1 9.29176 6.66563 2.77467
168 1 11.2069 8.01031 0.706706
149 1 9.74228 7.49184 5.10653
138 1 10.1552 6.67357 3.82805
175 1 9.662 9.06418 5.26866
152 1 10.9322 7.20893 6.03968
59 1 12.1209 6.59988 6.73962
158 1 11.1024 7.52658 10.418
164 1 10.3049 7.92415 9.38027
79 1 10.9056 7.50396 11.7645
172 1 10.2367 10.0382 4.53265
173 1 11.1943 10.9716 4.90869
179 1 9.43302 10.5673 3.5916
176 1 12.0524 10.6883 5.98342
182 1 11.3084 9.87718 8.15392
186 1 11.5126 10.9498 7.27746
185 1 9.28634 11.6135 7.56887
187 1 10.0278 9.9825 10.2715
190 1 10.6719 11.1889 10.4551
105 1 11.5742 12.137 10.1443
183 1 10.474 9.39784 9.07871
ITEM: TIMESTEP
3000
ITEM: NUMBER OF ATOMS
191
ITEM: BOX BOUNDS pp pp pp
-2.0528925233072748e-01 1.2205289252330742e+01
-2.0528925233072748e-01 1.2205289252330742e+01
-2.0528925233072748e-01 1.2205289252330742e+01
ITEM: ATOMS id type x y z
12 1 0.972461 0.492475 4.88017
118 1 0.0130314 0.521076 3.84085
31 1 2.53941 0.669468 8.76719
32 1 1.14621 0.559134 8.66791
11 1 0.48544 0.580154 7.33617
17 1 2.21728 2.16709 6.05176
13 1 1.11322 1.24158 6.14572
28 1 0.213153 0.720239 9.84604
38 1 2.35312 1.70752 10.9135
30 1 1.17671 2.51319 11.0371
29 1 0.0734679 2.04105 10.2523
36 1 2.61142 0.501532 11.6604
7 1 0.0899914 4.71178 1.3374
6 1 0.888551 3.97029 0.523873
45 1 0.758585 5.73261 1.97463
4 1 1.60544 2.97667 1.35117
14 1 1.93667 3.59846 6.65672
22 1 0.51318 3.97351 7.2503
63 1 0.485155 4.80909 8.45765
34 1 1.24475 3.92997 11.4197
64 1 1.80058 4.98612 10.7029
66 1 1.76788 4.75511 9.3188
39 1 0.456063 7.96682 0.809288
42 1 1.81008 7.80905 1.46825
41 1 1.78124 7.567 2.86488
54 1 2.26881 6.81884 5.57664
50 1 2.20659 8.66965 3.61625
52 1 0.83113 6.61291 5.53144
40 1 1.08167 6.52878 3.134
60 1 2.73537 8.05314 5.0036
53 1 0.264154 6.29355 4.219
108 1 1.34641 8.46011 9.08477
67 1 1.72025 7.21924 8.52499
71 1 0.514378 6.33872 7.83301
59 1 -0.0864291 6.75897 6.6349
77 1 2.08033 6.25905 11.4862
76 1 2.26018 7.63456 11.708
75 1 1.4051 8.75777 11.2626
89 1 0.802394 10.3201 0.84243
84 1 1.22453 10.2959 2.08835
80 1 0.69567 9.17936 -0.0647396
96 1 1.08334 10.66 5.3629
21 1 1.69568 11.7432 4.7962
83 1 2.36959 9.85813 2.94357
109 1 0.216025 8.94906 8.64655
107 1 1.99003 9.2656 9.98934
3 1 4.20198 0.425034 1.83862
1 1 3.33805 1.48735 2.06142
2 1 5.58363 0.586276 2.27801
5 1 2.94029 2.8352 2.03983
16 1 3.94548 0.00599912 5.0315
18 1 3.60847 1.58382 5.72044
10 1 4.74388 2.23226 6.42054
24 1 5.64109 2.3035 8.75104
26 1 5.79997 0.785743 8.67733
25 1 2.88203 1.84086 9.6541
48 1 4.95827 4.951 0.196834
44 1 5.63128 5.24785 2.45203
46 1 4.74278 4.76819 1.63686
8 1 3.64339 4.02244 1.95602
58 1 5.91495 4.98828 5.70422
70 1 3.08394 5.01252 8.52813
57 1 3.07195 4.71462 6.98996
9 1 5.51986 2.91112 7.35681
51 1 3.38592 5.82388 6.08352
78 1 4.77161 4.13337 11.5817
68 1 4.12192 4.14512 9.25568
69 1 4.89113 4.86521 10.2907
27 1 4.07681 2.66912 9.2924
72 1 5.73202 6.13144 10.4165
37 1 5.65678 2.98287 11.7397
47 1 5.0951 7.98294 2.26842
82 1 4.81951 8.76997 1.12353
43 1 2.7677 8.18052 0.636918
92 1 4.8622 8.66812 3.491
55 1 5.92061 7.34119 5.71402
56 1 4.91279 6.04948 5.84215
73 1 4.29095 7.74567 8.77196
62 1 5.70423 7.46916 8.28154
61 1 5.86638 8.27289 6.92179
65 1 3.12003 6.80625 8.67188
81 1 5.93579 6.40914 12.1079
88 1 3.68699 11.5574 1.63819
90 1 3.64033 9.28252 0.617076
85 1 3.60647 10.7183 0.406844
91 1 5.93015 9.6467 0.794594
97 1 5.51594 10.4687 5.32415
94 1 5.4306 11.8295 5.05598
87 1 3.1801 11.0783 2.96128
95 1 5.61187 9.72636 4.03182
20 1 3.05004 11.8168 4.20717
93 1 5.72068 9.8886 6.6576
100 1 5.50026 10.8472 7.8236
106 1 4.91718 12.0987 8.49236
101 1 5.68619 9.96097 9.03698
33 1 3.66011 12.2253 9.07106
103 1 3.32019 11.6706 11.6268
98 1 3.50753 11.3644 10.2775
99 1 3.16736 9.92341 9.91191
102 1 4.34203 9.19651 9.3173
114 1 8.95796 2.24049 0.233007
15 1 6.45183 0.272042 4.73273
19 1 6.10204 0.78539 3.46787
123 1 8.81791 0.844259 4.68318
121 1 7.8334 -0.0737823 5.16608
134 1 6.89517 2.71377 11.0427
130 1 8.1385 2.95317 11.7831
137 1 7.09385 0.493519 9.3461
129 1 8.46626 0.0502859 9.24245
147 1 7.96619 4.60809 2.5755
139 1 9.00232 5.38218 2.21309
141 1 6.75049 4.70139 3.21559
150 1 8.21236 3.85247 5.08065
156 1 6.74844 4.45397 4.54053
151 1 8.51237 5.21717 7.2344
166 1 7.29496 4.53846 7.82682
23 1 6.25266 4.17304 6.97074
165 1 8.55473 4.64512 10.0905
35 1 6.80069 2.89511 9.59576
136 1 8.64431 4.28122 11.4854
167 1 7.62128 4.03418 9.23286
171 1 7.86604 8.57093 1.48272
140 1 7.72384 7.92494 0.38148
142 1 8.39064 7.75212 2.5645
145 1 6.93502 6.83118 0.535676
49 1 6.04007 6.81837 2.24808
144 1 7.122 7.29521 3.33946
148 1 7.14288 7.36743 4.68184
154 1 8.40842 7.12323 5.29267
153 1 8.3543 6.60546 6.81229
162 1 8.65562 7.5455 7.74897
184 1 8.70344 8.93848 7.52483
159 1 8.97969 7.02743 9.32796
188 1 8.01194 8.56157 11.2994
160 1 7.77302 7.22166 10.029
74 1 6.48696 6.7312 9.5538
169 1 7.04988 9.75207 1.75699
170 1 6.75828 10.2521 3.18426
174 1 7.85665 10.8677 3.67516
178 1 8.5399 11.2416 6.04724
177 1 8.90682 9.83036 6.22357
181 1 8.43316 11.3736 8.27722
180 1 8.14652 9.99445 8.61549
104 1 7.02104 9.8745 9.47892
86 1 6.03704 10.1708 11.8593
110 1 6.96841 9.68955 10.8601
115 1 10.9544 1.76676 2.24297
112 1 9.9109 1.82147 1.18909
116 1 12.2697 1.36783 2.61238
111 1 10.3964 2.13342 3.46807
126 1 11.1059 -0.11148 4.29764
120 1 10.1451 1.00002 4.29687
127 1 10.4112 0.197797 7.8787
189 1 11.7135 -0.230781 7.38202
131 1 9.71658 0.878404 9.02553
132 1 11.3423 2.96342 9.80461
135 1 10.1883 2.15301 9.60387
119 1 9.97662 4.82258 1.27592
117 1 11.236 4.51772 1.82423
113 1 9.42943 4.82007 0.0152173
157 1 11.3936 5.85974 3.83591
124 1 9.609 3.81611 5.13346
146 1 11.023 4.61406 3.2578
128 1 10.2928 3.54445 3.89321
161 1 10.3959 4.89024 8.54713
155 1 9.83955 4.63112 7.31993
125 1 10.4361 3.9187 6.27665
122 1 11.8304 3.7249 6.52013
163 1 9.37206 5.63688 9.29895
133 1 11.4756 4.36275 8.98026
168 1 11.7823 7.18538 0.626632
143 1 9.4034 6.7537 2.6014
149 1 9.89982 7.48966 5.08849
138 1 10.328 6.82321 3.77529
175 1 9.86842 8.99225 5.17996
152 1 11.0058 7.10433 6.0957
158 1 10.7768 7.09011 10.7555
164 1 10.0925 7.9347 9.72754
79 1 11.2331 6.86029 11.9129
172 1 10.2182 9.96395 4.19806
173 1 11.1996 10.8969 4.72518
179 1 9.07762 10.5963 3.55471
176 1 12.1236 10.5037 5.78486
182 1 11.516 9.66149 8.30316
186 1 11.7126 10.7129 7.19778
185 1 9.22297 11.8392 7.16795
187 1 10.3187 10.0932 10.4143
190 1 10.8766 11.3333 10.6917
191 1 9.38081 9.44642 11.3663
105 1 11.8379 12.1243 10.2678
183 1 10.5136 9.24153 9.26562
ITEM: TIMESTEP
4000
ITEM: NUMBER OF ATOMS
191
ITEM: BOX BOUNDS pp pp pp
-1.4988850827672878e-01 1.2149888508276726e+01
-1.4988850827672878e-01 1.2149888508276726e+01
-1.4988850827672878e-01 1.2149888508276726e+01
ITEM: ATOMS id type x y z
12 1 0.890988 0.721058 4.56639
13 1 1.15638 1.28844 5.86783
31 1 2.81997 0.72522 8.728
32 1 1.36702 0.697901 8.32558
11 1 0.598111 0.592015 7.09987
17 1 2.39736 2.09428 6.18998
28 1 0.439732 0.962574 9.35317
38 1 2.49358 1.79598 10.8092
30 1 1.44711 2.67611 10.7325
29 1 0.298549 2.26678 9.9407
36 1 2.77735 0.739602 11.5916
7 1 0.467596 4.85581 1.57389
6 1 1.06145 3.95882 0.642783
45 1 1.31328 5.3117 2.51256
4 1 1.92116 3.05077 1.39425
14 1 2.04527 3.62112 6.70566
22 1 0.770717 3.90481 7.12473
63 1 0.63285 4.75911 8.4492
34 1 1.24155 3.79092 11.5116
64 1 1.41628 4.98708 10.7775
66 1 1.70195 4.69823 9.36773
39 1 0.217916 8.38922 0.851465
42 1 1.47686 7.96441 1.46152
43 1 2.46948 8.18538 0.555135
41 1 1.4684 7.65679 2.82334
54 1 2.42331 6.82226 5.48885
50 1 2.13488 8.61702 3.49331
40 1 1.21745 6.42537 3.32197
53 1 0.351532 6.31956 4.4131
52 1 1.02075 6.58855 5.62755
60 1 2.76693 7.97977 4.60001
108 1 1.58879 8.52269 8.79022
67 1 1.86909 7.19496 8.58142
71 1 0.845895 6.23158 8.01877
59 1 0.307884 6.64378 6.7317
77 1 1.93336 6.2718 11.1117
76 1 1.80786 7.5382 11.5716
75 1 1.18499 8.8258 11.105
89 1 0.931741 10.5544 0.693067
84 1 1.25311 10.3582 1.99267
83 1 2.30875 9.92754 2.82957
96 1 0.870001 10.6882 5.20816
21 1 1.56792 11.7869 4.72048
109 1 0.686549 9.07748 7.87904
105 1 0.141837 12.1007 10.2037
107 1 1.83835 9.26389 9.93491
80 1 0.566301 9.45299 12.1182
3 1 4.46652 0.292296 1.85813
1 1 3.69728 1.48607 1.7364
2 1 5.78257 0.35053 2.36577
5 1 3.27819 2.7731 1.60142
16 1 4.06161 0.0535603 5.24415
18 1 3.71005 1.39228 5.9091
9 1 5.47964 2.85362 7.33306
24 1 5.50992 2.31824 8.70091
26 1 5.8333 0.711544 8.8646
10 1 4.82404 1.98627 6.44613
25 1 3.24267 1.87479 9.57824
27 1 4.17624 2.78234 9.35138
48 1 5.48963 5.31884 0.181451
44 1 5.54727 5.41235 2.75178
46 1 5.01355 4.92328 1.48861
8 1 4.10779 3.83814 1.47238
58 1 5.88804 4.69824 5.71778
56 1 5.04465 5.9245 5.79509
70 1 2.95505 5.0533 8.85332
57 1 2.99185 4.60521 6.87844
51 1 3.59106 5.9901 6.10219
78 1 5.32973 4.30023 11.5006
68 1 4.01598 4.24015 9.33583
69 1 5.04178 4.99616 10.1645
37 1 5.85774 3.01963 11.6301
47 1 4.92193 7.83709 2.38148
82 1 4.90386 8.67956 1.18886
49 1 5.80518 6.8278 2.83497
55 1 5.74169 7.16326 5.80448
92 1 4.59018 8.81483 3.45981
73 1 4.18589 7.65252 9.01419
62 1 5.40654 7.38943 8.28387
61 1 5.47668 8.0421 6.9418
65 1 3.14172 6.66256 8.86085
102 1 4.20825 8.93255 9.56544
72 1 5.81587 6.31227 10.3813
88 1 3.80349 11.3171 1.86556
85 1 3.54752 10.6337 0.627588
91 1 6.02144 9.45161 0.866764
90 1 3.62271 9.17526 0.776383
97 1 5.28519 10.2185 5.41419
94 1 5.39572 11.6738 5.27427
95 1 5.50929 9.73709 3.95947
87 1 3.10944 11.118 3.04228
20 1 3.09283 11.7065 4.30322
93 1 5.23428 9.52098 6.79189
100 1 5.33954 10.4581 8.07878
106 1 4.87869 11.7939 8.32517
103 1 3.36396 11.561 11.7178
98 1 3.3277 11.0192 10.3853
99 1 3.12935 9.70423 10.0173
101 1 5.47125 9.65207 9.31475
33 1 3.67138 11.9862 8.97808
114 1 8.84175 1.91983 0.0937514
15 1 6.51101 -0.02275 4.85539
123 1 8.51045 1.09106 5.02739
19 1 6.76936 -0.0328141 3.43623
121 1 7.70591 0.0295656 5.58101
134 1 6.94475 2.54111 10.7979
130 1 8.1053 2.82861 11.566
129 1 8.30757 0.0829148 9.37148
137 1 7.0484 0.724501 9.46925
147 1 7.78447 4.56862 2.60409
139 1 8.94509 5.28609 2.30593
141 1 6.561 4.54115 3.44669
150 1 8.10485 3.85 5.05777
156 1 6.76266 4.23295 4.7971
151 1 8.49026 5.18439 7.14777
166 1 7.34792 4.48616 7.73207
23 1 6.15395 4.07362 7.08257
165 1 8.44056 4.66804 9.96572
136 1 8.61752 4.25947 11.3242
167 1 7.59558 4.08556 9.04916
35 1 6.83359 3.06222 9.50636
171 1 8.0113 8.4105 1.66572
140 1 8.21124 8.12891 0.324417
142 1 8.10092 7.43209 2.7724
144 1 6.93507 7.2938 3.58121
148 1 6.91267 7.28405 5.00291
154 1 8.19302 7.09944 5.48983
153 1 8.38534 6.52077 6.76417
162 1 8.87968 7.6357 7.67109
184 1 8.44613 9.00712 7.55744
160 1 7.74677 7.22027 9.60587
74 1 6.43264 6.91549 9.22972
81 1 6.33924 6.28776 11.7664
145 1 7.54164 7.04973 12.1376
169 1 6.98715 9.29932 1.75871
170 1 6.68287 9.95055 3.01685
174 1 7.53479 11.0503 3.07695
179 1 8.86144 10.8276 3.34692
177 1 8.54062 9.70581 6.23608
181 1 8.37702 11.1403 8.62299
180 1 7.92652 9.83741 8.68106
178 1 8.36026 11.181 6.24025
185 1 9.0687 11.6323 7.49213
104 1 6.89828 9.55491 9.70189
110 1 7.40026 9.92466 11.0869
86 1 6.3583 10.1792 12.0546
188 1 8.5631 9.21346 11.6299
115 1 10.4801 1.88386 2.15826
112 1 9.70582 1.55974 1.11576
116 1 11.8209 1.25066 2.49533
111 1 10.0624 2.38665 3.40503
126 1 10.749 0.189684 4.17636
120 1 9.71238 1.18875 4.24147
118 1 11.9677 0.848761 3.81292
127 1 10.0946 0.299238 7.80124
189 1 11.4702 0.119616 7.40612
131 1 9.48597 1.006 8.99419
135 1 10.2799 2.2364 9.34801
119 1 9.885 4.93103 1.34379
117 1 11.2857 4.75012 1.91146
113 1 9.49435 4.93142 -0.0297431
128 1 10.3096 3.66127 3.9614
124 1 9.59706 3.85649 5.15724
146 1 11.1246 4.64415 3.39199
161 1 10.3587 4.96562 8.61257
155 1 9.80106 4.58053 7.37716
125 1 10.3852 3.86724 6.30434
122 1 11.7371 3.57949 6.50873
133 1 11.5634 4.3067 9.00041
163 1 9.4061 5.64523 9.44405
132 1 11.4056 3.02288 9.69869
168 1 11.3699 7.59107 0.887367
138 1 10.0526 6.90123 4.00358
149 1 9.38585 7.67749 5.10072
143 1 9.25163 6.56415 2.88839
157 1 11.2319 6.16357 4.06812
152 1 11.5751 7.46385 6.90801
158 1 10.9189 7.27291 10.6822
79 1 10.7946 6.9987 12.062
164 1 10.3031 7.90183 9.51914
159 1 9.14176 7.0965 9.085
172 1 9.72373 10.1941 4.23363
173 1 10.8655 11.0063 4.4502
176 1 11.6957 10.6151 5.576
175 1 9.24992 9.2177 5.08516
182 1 11.8321 9.85185 7.89968
186 1 11.4808 10.9737 7.0453
187 1 10.8386 10.0456 10.4863
190 1 11.7998 11.0597 10.5424
191 1 9.82022 9.77939 11.388
183 1 10.7703 9.23882 9.26972
ITEM: TIMESTEP
5000
ITEM: NUMBER OF ATOMS
191
ITEM: BOX BOUNDS pp pp pp
-1.2809708257664487e-01 1.2128097082576682e+01
-1.2809708257664487e-01 1.2128097082576682e+01
-1.2809708257664487e-01 1.2128097082576682e+01
ITEM: ATOMS id type x y z
12 1 1.06267 0.505562 4.73459
118 1 0.0263524 0.53337 3.87255
11 1 0.494888 0.792723 7.24387
32 1 1.21708 0.68529 8.49352
13 1 1.14693 1.16839 6.01364
31 1 2.61325 0.828785 8.9295
17 1 2.32954 1.96133 6.11128
28 1 0.348667 0.956451 9.61185
38 1 2.54248 1.90753 10.9075
30 1 1.21581 2.61803 11.0541
29 1 0.195185 2.23125 10.1919
7 1 0.168606 4.73259 1.36958
6 1 0.881224 3.74913 0.695429
45 1 0.798373 5.84719 1.88161
4 1 1.83902 3.00656 1.42297
63 1 0.653958 4.9629 8.66726
22 1 0.688603 3.43335 6.51683
14 1 2.06956 3.34321 6.12912
34 1 1.20084 3.86837 11.6358
64 1 1.84521 5.01629 11.1067
66 1 1.8428 4.85476 9.67503
41 1 1.61899 7.87616 2.75409
42 1 1.53307 8.07009 1.30628
43 1 2.69492 8.3681 0.444762
39 1 0.212735 8.30175 0.689584
54 1 2.68034 6.85536 5.35491
52 1 1.22047 6.47727 5.36564
50 1 2.22966 8.79319 3.60361
53 1 0.377674 6.24477 4.19967
40 1 1.12736 6.60955 3.05367
108 1 1.53869 8.56029 8.57368
67 1 1.79007 7.21519 8.35965
71 1 0.97519 6.22008 7.77312
59 1 0.338302 6.57245 6.51483
77 1 1.99007 6.31423 11.5093
76 1 2.30207 7.71979 11.5465
75 1 1.33194 8.7426 10.8984
89 1 0.936174 10.4473 0.68898
84 1 1.33624 10.4798 2.03496
96 1 0.969389 10.4891 5.34966
21 1 1.78986 11.5179 4.81058
83 1 2.32622 10.1105 3.05239
109 1 0.49294 9.13133 7.86966
107 1 1.91719 9.26221 9.69845
80 1 0.521578 9.37538 12.0827
3 1 4.6754 0.64314 2.11413
1 1 3.81317 1.73109 2.38044
16 1 4.13658 0.0295076 5.40837
18 1 3.66055 1.47273 5.88039
10 1 4.75801 2.34191 6.18281
24 1 5.40077 2.35066 8.67049
9 1 5.6036 2.83715 7.26137
26 1 5.71741 0.77492 8.71455
25 1 3.14115 2.00309 9.59844
27 1 4.16659 2.90956 9.24905
37 1 5.91466 2.75522 11.8144
36 1 2.99327 0.760208 11.7169
48 1 5.38019 4.97591 0.466844
44 1 5.81971 5.64232 2.69687
46 1 4.81646 5.088 1.72536
8 1 3.7838 4.15561 1.97725
5 1 3.05982 2.95399 2.05534
51 1 3.65669 5.70829 5.69211
56 1 5.23921 5.80851 5.80523
57 1 2.96058 4.47755 6.13486
78 1 5.28965 3.96416 11.7767
68 1 4.17569 4.41822 9.46835
69 1 5.19381 4.69539 10.4516
72 1 5.99531 5.93402 10.5951
70 1 3.09005 5.3821 9.10539
47 1 4.73772 8.07538 2.64911
82 1 4.6814 8.95036 1.42892
49 1 5.67425 6.99689 2.83734
92 1 4.41572 8.56479 4.02013
55 1 5.86738 7.22019 5.75371
60 1 3.16466 8.12271 4.56269
65 1 3.16614 6.76037 8.76131
62 1 5.60064 7.1551 8.37058
61 1 5.75461 8.1372 7.07817
73 1 4.32334 7.61429 8.92727
102 1 4.29099 8.80899 9.50424
88 1 3.94731 11.647 1.98026
85 1 3.52542 11.1074 0.673215
91 1 5.88821 9.41434 0.841268
90 1 3.58575 9.38154 0.828426
97 1 5.53966 10.2548 5.48074
94 1 5.53146 11.7778 5.48945
95 1 5.35114 9.77339 4.13419
20 1 3.16906 11.6894 4.6419
87 1 3.32736 11.0573 3.2063
93 1 5.39289 9.54075 6.7578
100 1 5.20686 10.4964 8.01958
106 1 4.74228 11.9049 8.38218
103 1 3.28948 11.647 11.679
98 1 3.35558 11.0346 10.3147
99 1 3.27512 9.58565 9.94655
86 1 5.91987 9.6564 11.7363
33 1 3.55259 11.9853 9.1252
101 1 5.39471 9.7403 9.16521
2 1 6.0196 0.526242 2.47487
123 1 8.91416 1.22754 5.2671
19 1 6.69898 0.0292846 3.46949
121 1 7.8997 0.215087 5.64999
15 1 6.65559 0.252266 4.92847
134 1 6.94448 2.44807 10.9612
137 1 6.8832 0.454736 9.46782
129 1 8.35462 0.242059 9.34558
130 1 8.22456 2.5473 11.497
35 1 6.63149 2.92328 9.68172
147 1 7.90665 4.46725 2.63665
139 1 8.9578 5.27344 2.20246
141 1 6.75475 4.72129 3.36301
150 1 8.07766 3.65008 4.85019
156 1 6.85918 4.32985 4.75275
58 1 6.14817 4.70809 5.87053
151 1 8.36978 5.19761 7.13259
166 1 7.44141 4.47098 7.80088
23 1 6.30385 4.00124 7.07773
165 1 8.49944 4.59022 10.1888
136 1 8.67414 3.82903 11.2976
167 1 7.3896 4.0672 9.22198
171 1 7.87028 8.46584 1.54786
140 1 8.12678 8.10951 0.200348
142 1 8.0567 7.56923 2.66705
145 1 7.38271 6.72107 0.0815767
81 1 6.15706 6.04018 -0.127346
144 1 6.88254 7.39135 3.40809
148 1 6.95406 7.27963 4.73565
154 1 8.19372 7.10067 5.38537
153 1 8.33502 6.50145 6.61023
162 1 8.6887 7.54335 7.57543
184 1 8.37478 8.99669 7.57907
159 1 9.01093 7.02829 9.05588
160 1 7.62814 7.20275 9.60496
74 1 6.34843 6.64874 9.42523
169 1 6.89456 9.42166 1.81398
174 1 7.42066 11.0708 3.25055
170 1 6.38599 9.92448 3.15103
179 1 8.84149 10.6945 3.27096
177 1 8.65688 9.63669 6.21599
181 1 8.49965 11.2468 8.54062
180 1 7.91681 9.87651 8.5885
178 1 8.39368 11.2639 6.20491
104 1 6.70734 9.78755 9.5214
110 1 7.03836 9.56776 10.8885
188 1 8.22707 9.09216 11.51
115 1 10.8538 1.69793 2.13626
112 1 10.0016 1.54965 1.0059
114 1 9.06844 1.71354 0.0424642
116 1 12.127 1.08234 2.47906
111 1 10.2538 2.30809 3.42063
126 1 11.0206 0.164273 4.35979
120 1 10.0047 1.21226 4.28196
127 1 10.2759 0.369062 7.76193
131 1 9.67444 1.18618 8.80983
189 1 11.5251 -0.0635468 7.42944
135 1 10.1959 2.38943 9.23881
105 1 12.0621 -0.00453351 10.5019
119 1 9.77719 4.85484 1.25563
117 1 11.0057 4.56665 1.91322
113 1 9.57129 4.40574 0.00865022
128 1 10.3459 3.66342 3.98676
124 1 9.4582 3.92306 4.98297
146 1 10.8279 4.85548 3.28795
161 1 10.4031 5.05204 8.5824
155 1 9.76085 4.77602 7.35196
122 1 11.6546 3.85546 6.21221
125 1 10.3429 4.26821 6.12996
163 1 9.39771 5.53508 9.46396
132 1 11.3699 3.08536 9.73387
133 1 11.6172 4.37782 9.16476
168 1 11.1378 7.60013 0.599674
143 1 9.18113 6.65439 2.75399
138 1 10.0363 6.96985 3.91797
149 1 9.38567 7.69934 4.76139
157 1 11.1593 6.11235 3.94293
152 1 11.3652 7.28223 6.4176
158 1 10.8177 7.27778 10.4928
79 1 10.664 7.00277 11.7795
164 1 10.3143 7.88899 9.30703
172 1 9.79097 10.2035 4.22841
173 1 10.84 11 4.78676
176 1 11.8237 10.6353 5.72254
175 1 9.24309 9.10656 5.03154
182 1 11.4085 9.60513 8.01654
186 1 11.4928 10.8158 7.0896
185 1 9.29011 11.6038 7.30004
187 1 10.4851 10.0888 10.2082
190 1 11.4511 11.0494 10.4737
191 1 9.5172 9.74884 11.1341
183 1 10.7036 9.19824 9.12183
ITEM: TIMESTEP
6000
ITEM: NUMBER OF ATOMS
191
ITEM: BOX BOUNDS pp pp pp
-1.6369794864649118e-01 1.2163697948646567e+01
-1.6369794864649118e-01 1.2163697948646567e+01
-1.6369794864649118e-01 1.2163697948646567e+01
ITEM: ATOMS id type x y z
12 1 0.965453 0.395043 4.88183
13 1 1.26154 1.05503 6.12811
118 1 -0.0885728 0.478742 3.9207
17 1 2.40167 1.98227 5.93247
11 1 0.592538 0.666231 7.46643
32 1 1.26576 0.540227 8.6584
31 1 2.6815 0.67036 8.78552
28 1 0.470385 0.763029 9.80975
38 1 2.56535 1.95394 10.7616
30 1 1.37425 2.77144 10.8581
29 1 0.25498 2.22066 10.0973
36 1 2.80514 0.778007 11.5522
105 1 -0.255641 -0.126624 10.5685
7 1 0.0536073 4.64073 1.57297
6 1 0.910114 3.83839 0.627536
45 1 0.851397 5.73619 2.07422
4 1 1.76915 2.97672 1.25932