ITEM: TIMESTEP
1000
ITEM: NUMBER OF ATOMS
191
ITEM: BOX BOUNDS pp pp pp
0.0000000000000000e+00 1.2000000000000000e+01
0.0000000000000000e+00 1.2000000000000000e+01
0.0000000000000000e+00 1.2000000000000000e+01
ITEM: ATOMS id type x y z
12 1 1.20509 0.848646 4.8824
1 1 2.45416 2.21262 3.44646
118 1 0.0568909 0.931156 4.21542
31 1 2.7963 1.20012 8.59879
32 1 1.33362 1.11411 8.47168
11 1 0.524598 1.20419 7.34151
17 1 2.71238 2.40746 6.16634
13 1 1.38231 1.67759 6.10224
28 1 0.600435 1.06936 9.68613
29 1 0.380463 2.49177 10.0643
30 1 1.54051 2.88833 10.6729
38 1 2.76966 2.1392 10.5977
4 1 2.18611 3.42645 1.49308
6 1 1.37529 4.1638 0.681185
7 1 0.316389 4.7799 1.23673
5 1 2.72351 3.38718 2.80547
53 1 0.358511 5.83537 4.1516
14 1 2.48962 3.77126 6.47623
22 1 1.04066 4.12647 6.92577
63 1 0.861504 4.89394 8.19573
34 1 1.60511 4.1806 11.3394
64 1 1.84804 5.17285 10.4568
66 1 1.97643 4.87993 9.13738
39 1 0.181589 8.50532 0.712513
43 1 2.65505 8.15867 0.868042
42 1 1.41328 7.99508 1.5577
45 1 0.410238 6.0196 1.6437
40 1 0.607622 6.50916 2.98891
41 1 1.37971 7.70322 2.91852
54 1 2.3679 6.52629 5.21292
50 1 2.14686 8.46843 3.69532
52 1 1.04645 6.21113 5.25484
60 1 2.43505 7.90596 4.88676
59 1 0.319578 6.54721 6.41356
67 1 1.82448 7.31926 8.10585
71 1 0.824954 6.39916 7.65354
108 1 1.50378 8.72625 8.5489
75 1 1.63839 8.73584 10.9
76 1 2.39605 7.75422 11.4558
77 1 2.36185 6.3648 11.1126
89 1 1.68557 10.4378 0.778156
84 1 1.26087 10.293 2.26055
96 1 1.39937 10.5244 5.80047
21 1 1.92503 11.6793 5.0829
83 1 1.97272 9.86486 3.45811
109 1 0.460584 9.13924 7.92927
107 1 1.96788 9.23301 9.68906
80 1 0.964113 9.47731 11.8748
3 1 3.46182 1.23958 3.5408
16 1 4.12741 0.164967 5.50129
2 1 4.94593 1.47411 3.18049
9 1 5.79569 2.82726 7.153
24 1 5.70492 2.43076 8.65892
26 1 5.83625 0.933983 8.58776
10 1 5.33926 2.06308 6.16372
18 1 3.95423 1.52412 6.0336
25 1 3.47206 2.22466 9.36298
36 1 3.1563 1.05003 11.3995
48 1 4.33373 4.65548 0.709691
44 1 5.99016 5.22315 2.44868
46 1 4.83482 4.57961 2.03733
8 1 3.91788 4.06314 2.96916
58 1 5.89245 4.77236 5.62939
56 1 5.05263 5.94244 5.47293
51 1 3.61934 5.79543 5.77172
70 1 3.40603 5.25056 8.37877
57 1 3.29911 4.88631 6.83742
78 1 5.12797 4.29346 11.5245
68 1 4.40579 4.42649 9.42396
69 1 5.059 5.21573 10.3426
27 1 4.47806 3.0505 9.22505
47 1 5.19546 7.94796 2.43487
82 1 4.90455 8.78538 1.39948
92 1 5.0144 8.61295 3.70179
55 1 5.95341 7.18716 5.53858
73 1 4.19161 7.74413 8.55678
62 1 5.53684 7.49362 7.95057
65 1 3.19209 6.8109 8.4114
61 1 5.63671 8.06901 6.60218
72 1 5.55993 6.5066 10.3029
81 1 5.54413 7.76087 11.0694
88 1 3.49987 11.0428 2.1632
85 1 3.16455 10.4098 1.00517
91 1 5.91697 9.71594 1.04399
90 1 3.67653 9.11918 1.0001
94 1 5.51007 11.7138 5.47563
97 1 5.54044 10.2859 5.25334
87 1 3.11333 10.7168 3.43176
20 1 3.18504 11.8843 4.2963
95 1 5.89847 9.73487 4.04418
93 1 5.64775 9.60237 6.45837
100 1 5.39615 10.4731 7.59658
101 1 5.51693 9.71445 8.84227
106 1 4.93343 11.8978 7.96221
33 1 3.59975 11.9983 8.55921
98 1 3.50555 11.1841 9.68144
103 1 3.22428 11.7935 10.9441
99 1 3.27887 9.79207 9.59418
102 1 4.32834 9.07969 9.01661
114 1 8.60925 1.0636 0.341457
15 1 6.28686 1.03729 5.36838
19 1 6.14573 1.31933 3.9212
121 1 7.76238 0.614062 5.91285
128 1 8.88866 2.97665 3.70562
129 1 8.35478 0.18746 9.37563
130 1 8.26103 2.13424 11.4211
137 1 7.02759 0.504277 9.32774
134 1 6.96563 2.54662 10.8961
35 1 6.87822 2.8466 9.43909
147 1 8.12484 3.78741 2.81579
139 1 8.95702 4.71955 2.11283
141 1 6.86754 4.534 3.29409
150 1 8.14886 4.52859 5.47536
156 1 6.87198 4.6036 4.71775
151 1 8.27125 5.07366 6.80782
166 1 7.22697 4.60737 7.64401
23 1 6.11789 4.13615 6.99852
167 1 7.57641 4.01855 8.90824
165 1 8.33637 4.89564 9.7276
37 1 6.09022 3.28999 11.648
49 1 6.32647 6.66491 2.15676
140 1 7.99375 7.68454 0.383597
142 1 8.58072 7.38481 2.5869
145 1 6.96274 6.67636 0.681379
171 1 8.11027 8.45739 1.63405
144 1 7.31434 7.04926 3.2988
148 1 7.18411 7.1601 4.73754
154 1 8.35935 7.1502 5.53352
153 1 8.1698 6.55922 6.73473
162 1 8.58165 7.49694 7.74916
184 1 8.14193 8.93666 7.51019
188 1 7.99517 8.26872 11.0671
74 1 6.48352 6.90777 9.14608
160 1 7.81743 7.2395 9.89896
169 1 7.09657 9.53003 1.87342
174 1 7.97704 10.9841 3.56656
170 1 6.93637 10.1165 3.21665
177 1 8.34338 9.55504 6.12299
178 1 8.10362 11.1346 6.34415
180 1 7.89147 9.70405 8.60484
181 1 8.60636 10.9521 8.71045
185 1 8.91145 11.4014 7.40967
104 1 6.73251 9.58153 9.41521
110 1 6.49943 9.08283 10.8292
86 1 6.07477 10.1283 11.7812
115 1 10.3233 1.23323 2.44296
116 1 11.6482 0.993539 2.82226
112 1 9.70433 1.22206 1.2498
111 1 9.4857 1.66562 3.53701
126 1 10.9251 0.207048 4.75638
120 1 9.76984 1.11383 4.82804
123 1 9.07273 1.35593 5.95414
127 1 9.85358 0.871564 7.35898
189 1 11.3665 0.497339 7.24559
131 1 9.26943 1.27343 8.8753
135 1 9.92736 2.45712 9.72437
136 1 9.31994 2.91918 10.9834
105 1 11.8296 0.0101488 10.1355
119 1 10.0568 4.12402 1.1601
117 1 11.2913 4.10232 1.87838
157 1 11.3328 4.9189 4.17809
124 1 9.18021 3.70881 5.01453
146 1 11.3855 3.97031 3.30822
138 1 10.2186 5.74187 3.89366
161 1 10.2777 4.94223 8.31128
155 1 9.72347 4.77316 7.05922
133 1 11.4486 4.36918 8.8939
122 1 11.7791 3.7662 6.22739
125 1 10.4313 4.01175 6.05778
163 1 9.44619 5.61201 9.18789
113 1 9.86272 3.82653 11.855
132 1 11.2015 3.12199 9.46298
143 1 9.41135 6.11047 2.82495
168 1 11.139 7.60473 0.563201
149 1 9.69535 7.6531 5.41856
152 1 10.827 7.13612 6.19421
159 1 9.168 7.09184 8.9772
158 1 11.2905 7.02504 10.2119
164 1 10.4181 7.84684 9.49228
79 1 11.2299 6.74242 11.5198
172 1 10.0074 10.0659 4.56232
173 1 11.0291 10.7553 5.07982
175 1 9.42791 9.05859 5.30838
179 1 9.28849 10.6904 3.58403
182 1 11.2861 9.8532 8.11419
186 1 11.4828 11.032 7.29613
176 1 11.9937 10.5963 6.03074
187 1 10.2157 9.88624 10.5578
190 1 10.9942 11.1135 10.7664
183 1 10.5117 9.3033 9.2034
191 1 9.03 9.33326 11.045
ITEM: TIMESTEP
2000
ITEM: NUMBER OF ATOMS
191
ITEM: BOX BOUNDS pp pp pp
-1.1217491096465394e-01 1.2112174910964649e+01
-1.1217491096465394e-01 1.2112174910964649e+01
-1.1217491096465394e-01 1.2112174910964649e+01
ITEM: ATOMS id type x y z
4 1 1.60795 2.79819 1.59298
5 1 2.94215 2.70809 2.31874
12 1 1.25923 0.660967 4.84457
118 1 0.190955 0.407466 3.98908
31 1 2.73194 0.925872 8.76601
32 1 1.30365 0.73969 8.57479
11 1 0.62867 0.846294 7.33808
17 1 2.59639 2.12371 6.26655
13 1 1.32931 1.39241 6.15458
28 1 0.355822 0.945505 9.74829
29 1 0.263429 2.41367 10.2697
30 1 1.35153 2.65505 11.0325
38 1 2.68566 1.99516 10.7936
7 1 0.442241 4.81834 1.55563
6 1 1.0143 3.85502 0.782997
45 1 1.00142 5.97755 2.11648
14 1 2.25097 3.52432 6.66375
22 1 0.908729 3.83662 7.09286
63 1 0.662049 4.62058 8.35358
34 1 1.36149 3.94131 11.6427
64 1 1.74835 5.07328 10.7699
66 1 1.94681 4.60099 9.22989
39 1 0.164733 8.76623 0.951525
43 1 2.36398 8.03685 0.82612
42 1 1.17974 8.20528 1.75812
54 1 2.38406 6.59612 5.56952
50 1 2.24085 8.73336 3.87993
52 1 0.985126 6.35857 5.63702
40 1 0.936348 6.61135 3.29076
60 1 2.61223 7.9433 5.03455
53 1 0.262617 6.27057 4.40937
41 1 1.42714 7.9145 3.02465
108 1 1.41859 8.50992 8.60014
67 1 1.83914 7.11959 8.38727
71 1 0.736232 6.19595 8.06647
59 1 0.200989 6.63143 6.75275
77 1 1.95983 6.38331 11.2619
76 1 1.82048 7.65303 11.6892
75 1 1.27639 8.82991 11.1178
89 1 1.51548 10.6437 0.743246
84 1 1.39329 10.5488 2.18061
80 1 0.772866 9.65925 -0.0218702
83 1 2.23808 10.0415 3.2288
21 1 1.95952 11.6319 5.10438
96 1 1.10017 10.4742 5.43991
176 1 -0.291207 10.5913 5.85704
109 1 0.292572 9.10215 7.98798
107 1 1.87837 9.19309 9.86966
3 1 5.11085 1.25758 1.94669
1 1 3.89658 1.76443 2.01654
16 1 4.17683 0.0113412 5.41258
18 1 3.89144 1.42241 5.90881
26 1 5.88364 0.84276 8.8928
24 1 5.59446 2.36096 8.70554
10 1 5.06116 2.03751 6.35527
9 1 5.69202 2.81225 7.31809
25 1 3.25383 2.08524 9.54617
36 1 2.9347 0.86969 11.7146
48 1 4.21068 4.92527 0.55136
8 1 3.40408 3.93315 2.68631
46 1 4.30586 4.74495 1.97567
44 1 5.41038 5.24154 2.66761
56 1 5.01969 5.67326 5.62352
51 1 3.47756 5.64775 5.97574
70 1 3.18193 5.10974 8.52493
57 1 3.05645 4.69142 6.96478
78 1 4.86106 4.57258 11.6048
68 1 4.24903 4.36689 9.29319
69 1 4.79811 5.21849 10.3095
37 1 5.79679 3.57665 11.6265
27 1 4.28061 2.96983 9.16325
47 1 4.96021 7.73232 2.27188
82 1 4.60274 8.65699 1.22615
90 1 3.39933 9.06657 0.912022
55 1 5.77686 7.04887 5.54449
92 1 4.98523 8.34786 3.6088
73 1 4.06433 7.62686 8.59084
62 1 5.45136 7.44754 8.04872
61 1 5.64282 7.99917 6.66619
65 1 3.12656 6.70525 8.48923
102 1 4.27666 9.05641 9.16768
72 1 5.41387 6.42919 10.0706
81 1 5.50558 7.63115 10.9175
88 1 3.54237 11.3627 1.90174
85 1 3.0795 10.6933 0.436112
91 1 5.73953 9.52249 0.911691
94 1 5.59598 11.8124 5.31841
20 1 3.29645 11.5089 4.56177
97 1 5.67887 10.2993 5.17959
87 1 3.37625 11.0166 3.29136
95 1 5.74029 9.52707 4.01421
93 1 5.38552 9.67342 6.47985
100 1 5.25958 10.6709 7.64763
101 1 5.47499 9.77247 8.76532
33 1 3.48301 11.9997 8.99594
106 1 4.93381 12.1675 8.27942
98 1 3.34047 11.0852 10.1281
99 1 3.26424 9.75049 9.84459
103 1 3.31887 11.6831 11.5301
86 1 5.98038 9.8706 11.8442
114 1 8.82681 1.83386 0.367774
2 1 6.24378 1.39916 2.68531
15 1 6.84734 0.194745 4.92492
19 1 6.87708 0.745489 3.61945
121 1 8.12924 -0.0598151 5.65344
129 1 8.26347 0.429488 9.46579
130 1 8.16813 2.57283 11.4991
137 1 6.84494 0.503733 9.89832
134 1 6.74631 2.70031 11.0275
147 1 7.79754 4.61517 2.36961
139 1 8.99418 5.28934 2.06371
141 1 6.60793 4.53877 3.19104
150 1 8.23437 3.72206 4.90704
156 1 6.87618 4.30241 4.66574
58 1 5.91579 4.47172 5.76519
151 1 8.58364 5.29115 6.91554
166 1 7.52078 4.48551 7.63081
23 1 6.31982 3.95624 7.04616
167 1 7.62942 3.90945 8.99906
165 1 8.69438 4.39814 9.83601
35 1 6.749 2.90189 9.47398
171 1 7.91143 8.50966 1.50272
140 1 7.63917 7.61476 0.27213
142 1 8.23089 7.74113 2.6152
145 1 6.56607 6.6238 0.736999
49 1 5.89565 6.61309 2.14903
144 1 6.96089 7.09251 3.30159
148 1 6.96602 7.02894 4.7383
154 1 8.19257 6.99337 5.41415
153 1 8.43527 6.67453 6.69671
162 1 8.6387 7.63601 7.67269
184 1 8.45632 9.0723 7.63285
159 1 9.02622 7.0447 9.04428
188 1 7.79034 8.28172 11.0519
160 1 7.62431 7.10576 9.76411
74 1 6.40185 6.76221 9.06406
110 1 6.43821 8.98572 10.7998
169 1 6.94862 9.50169 1.75196
170 1 6.8542 10.0202 3.1175
174 1 8.03682 10.7506 3.43901
177 1 8.91851 9.65943 6.32755
178 1 8.77506 11.11 6.32516
180 1 7.90672 9.9072 8.67768
181 1 8.47442 11.238 8.78925
104 1 6.66058 9.60288 9.45795
191 1 8.99167 9.40076 10.9365
115 1 10.8589 1.43736 2.19129
112 1 9.83 1.33369 1.05795
116 1 12.1505 0.96897 2.66655
111 1 10.2523 2.07004 3.3735
126 1 11.1982 0.0873798 4.64015
120 1 10.1307 1.11773 4.46936
123 1 9.04156 0.986338 5.38396
127 1 10.1855 0.62665 7.87058
189 1 11.5261 0.199895 7.3896
131 1 9.40764 1.28238 9.03832
135 1 10.134 2.45457 9.75507
119 1 9.93445 4.78342 1.03547
117 1 11.2778 4.60105 1.85253
157 1 11.1251 5.7785 3.96455
124 1 9.67095 3.69232 4.99901
128 1 10.459 3.31452 3.90178
146 1 11.064 4.48998 3.354
161 1 10.4745 5.10756 8.4214
155 1 9.89283 4.85166 7.11462
125 1 10.6125 4.04624 6.21433
122 1 11.9477 3.866 6.32145
133 1 11.5136 4.39635 8.93751
163 1 9.36472 5.45602 9.19291
136 1 9.27767 3.29345 10.76
113 1 9.76404 4.23551 11.9855
132 1 11.3633 2.94501 9.61067
143 1 9.2206 6.59827 2.85226
168 1 11.2093 8.03825 0.597716
149 1 9.37708 7.6744 4.8226
138 1 10.0606 6.76285 3.92878
152 1 11.2895 7.60261 6.68336
158 1 11.1481 7.45601 10.491
164 1 10.4006 7.77391 9.32529
79 1 10.6814 7.50916 11.7117
172 1 10.2075 10.1278 4.23043
173 1 11.1929 10.9676 4.84887
179 1 9.36471 10.7552 3.41362
175 1 9.47639 9.09168 5.06024
182 1 11.4115 9.90016 8.12885
186 1 11.6412 11.0093 7.25501
185 1 9.34609 11.5741 7.62517
183 1 10.4946 9.28493 8.98987
187 1 10.1684 9.87693 10.2489
190 1 10.7356 11.1071 10.4404
105 1 11.669 12.1074 10.2135
ITEM: TIMESTEP
3000
ITEM: NUMBER OF ATOMS
191
ITEM: BOX BOUNDS pp pp pp
-2.2615788657295399e-01 1.2226157886572919e+01
-2.2615788657295399e-01 1.2226157886572919e+01
-2.2615788657295399e-01 1.2226157886572919e+01
ITEM: ATOMS id type x y z
12 1 0.754068 0.478469 4.92211
17 1 2.26569 2.04783 6.05812
32 1 1.32529 0.461622 8.76847
11 1 0.637078 0.495 7.45781
13 1 1.11771 1.13527 6.17404
28 1 0.322851 0.728674 9.80337
29 1 0.122144 2.03962 10.3191
30 1 1.31897 2.49631 11.0117
38 1 2.54973 1.6584 11.1006
36 1 2.6569 0.396574 11.6118
105 1 -0.161405 -0.36826 10.4869
31 1 2.82277 0.556674 8.94928
7 1 0.232745 4.59381 1.45598
6 1 0.952762 3.67311 0.684455
45 1 0.940207 5.63536 2.07733
4 1 1.9492 3.08435 1.4008
14 1 1.98744 3.42485 6.6138
22 1 0.656313 3.67818 7.03148
63 1 0.603709 4.79585 8.235
57 1 2.88898 4.55959 6.88761
34 1 1.13788 3.8709 11.6917
64 1 1.3942 4.91953 10.7645
66 1 1.68562 4.55302 9.28434
39 1 0.34733 8.58354 0.891795
43 1 2.60188 8.09893 0.395079
42 1 1.64671 8.18923 1.45216
41 1 1.70539 7.77122 2.67883
54 1 2.205 6.71704 5.48071
50 1 2.00474 8.63019 3.72806
40 1 1.00875 6.58692 3.04682
52 1 0.809739 6.57108 5.39315
60 1 2.60633 8.02842 4.92091
53 1 0.0963558 6.40567 4.16704
108 1 1.36052 8.30811 8.82957
67 1 1.69306 7.02856 8.47009
71 1 0.62455 6.1879 7.75386
59 1 0.0735625 6.72054 6.59254
75 1 1.19717 8.76304 11.1592
76 1 1.8804 7.50907 11.7635
77 1 1.52206 6.23781 11.3104
107 1 1.84128 8.91289 9.94054
89 1 1.5977 10.3843 0.794784
84 1 1.26911 10.5173 2.153
80 1 0.866718 9.62003 -0.1425
96 1 0.921094 10.644 5.31747
21 1 1.63923 11.8263 4.85793
83 1 2.08817 9.96084 3.11156
109 1 0.487047 8.99222 7.99142
3 1 5.10795 1.19979 2.18062
1 1 3.94898 1.82807 1.96582
16 1 3.95659 0.192576 5.17789
18 1 3.50621 1.41872 5.78237
10 1 4.64636 2.16865 6.34588
24 1 5.37994 2.27022 8.67168
9 1 5.51384 2.78118 7.20963
26 1 5.75959 0.646853 8.81161
25 1 3.26657 1.6483 9.8437
27 1 4.15706 2.68673 9.20306
48 1 5.08663 5.1868 0.133943
8 1 3.91398 4.11529 2.16399
46 1 4.7806 5.13493 1.54285
44 1 5.66834 5.69052 2.50595
5 1 3.24791 2.97039 1.87553
56 1 4.95294 5.84855 5.60278
58 1 5.87519 4.65469 5.63784
70 1 3.05128 4.97548 8.49368
51 1 3.31243 5.73072 5.91238
78 1 4.7831 4.26117 11.6646
68 1 4.08651 4.13933 9.35483
69 1 4.69484 4.82365 10.3466
37 1 5.42481 2.97309 11.8366
72 1 5.48491 6.11672 10.4885
47 1 4.98901 8.03234 2.28815
90 1 3.69005 9.05493 0.415641
82 1 4.94973 8.75432 0.947823
49 1 5.79877 7.03539 2.71763
92 1 4.83706 8.92754 3.458
55 1 5.85596 7.29343 5.71559
73 1 4.19286 7.50009 8.88841
62 1 5.60224 7.40245 8.2774
61 1 5.67453 8.05669 6.8728
65 1 3.04132 6.57317 8.74761
81 1 5.72569 6.24725 11.9273
102 1 4.14389 8.89794 9.49066
88 1 3.69648 11.2805 1.75612
91 1 5.90609 9.72666 0.77422
85 1 3.15804 10.684 0.404775
94 1 5.53165 11.7262 5.40629
97 1 5.59673 10.2801 5.48378
95 1 5.74335 9.83793 4.05083
87 1 3.37175 10.9669 3.2589
20 1 3.03839 11.7568 4.41073
93 1 5.49902 9.59991 6.79699
100 1 5.1755 10.4618 7.96538
106 1 4.93144 12.0173 8.43036
101 1 5.30261 9.68728 9.13994
98 1 3.36729 10.8547 10.2671
99 1 3.01068 9.61277 9.87057
103 1 3.23456 11.4411 11.5616
33 1 3.58252 11.8794 9.13951
114 1 8.98318 1.90479 -0.033363
15 1 6.84633 0.00233013 5.192
19 1 6.76612 0.922611 3.99868
123 1 8.92049 0.985617 4.95007
2 1 6.27236 1.20399 2.84104
121 1 8.22221 -0.0189027 5.60529
129 1 8.50675 0.19247 9.38985
134 1 6.55927 2.61428 11.1633
137 1 7.1257 0.413242 9.29344
35 1 6.54972 2.82431 9.65597
130 1 8.08541 2.76381 11.6358
147 1 7.87809 4.82193 2.25161
139 1 9.13782 5.61406 1.83528
141 1 6.59709 4.7842 3.1203
150 1 8.08193 3.76941 4.81633
156 1 6.71539 4.35984 4.51137
151 1 8.35223 5.2362 7.3227
166 1 7.26934 4.45919 7.71144
23 1 6.11261 3.99021 6.95688
165 1 8.40262 4.50395 9.96874
136 1 8.87543 3.99974 11.2685
167 1 7.4345 3.99805 9.12911
171 1 7.75574 8.54465 1.46568
140 1 7.75922 8.24543 -0.00548396
142 1 8.05212 7.6555 2.57761
144 1 7.02401 7.23524 3.41546
148 1 7.21226 7.29793 4.81303
154 1 8.46926 7.19665 5.53078
153 1 8.4217 6.69426 6.85082
162 1 8.64644 7.68343 7.78826
74 1 6.29745 6.79088 9.42942
160 1 7.68103 6.98886 9.63416
145 1 6.95717 7.10798 12.3224
159 1 8.87696 7.07484 9.13708
169 1 6.91161 9.71695 1.74711
174 1 8.0512 10.9831 3.30039
170 1 6.93085 10.2777 3.23389
177 1 8.80299 9.74617 6.24318
178 1 8.71226 11.3649 6.41601
180 1 7.78649 10.0963 8.50869
181 1 8.71194 11.2887 8.66532
184 1 8.41735 9.05706 7.57671
104 1 6.82373 9.65366 9.52415
110 1 6.89375 10.013 10.9766
86 1 6.02117 10.5051 12.0145
188 1 8.23689 9.43256 11.4543
115 1 10.6819 1.80066 2.0138
112 1 10.0441 1.78781 0.801666
116 1 11.98 1.27131 2.46586
111 1 10.0476 2.21389 3.32122
120 1 10.0125 1.02927 4.15185
126 1 10.9875 0.057461 4.24046
118 1 12.2825 0.575274 3.79728
127 1 10.4095 0.147831 8.00644
131 1 9.78355 0.896982 9.11308
189 1 11.7925 -0.269593 7.64427
135 1 10.419 2.06745 9.62842
119 1 10.1189 4.86203 1.11966
117 1 11.3052 4.53269 1.83603
146 1 11.0585 4.63641 3.33473
124 1 9.4875 3.62241 5.06731
128 1 10.2029 3.42469 3.90797
157 1 11.1389 6.05235 3.94108
161 1 10.5471 4.9853 8.58873
155 1 9.83198 4.71739 7.30758
122 1 11.676 3.54198 6.27631
125 1 10.3181 3.8747 6.22902
133 1 11.8162 4.23729 8.96297
163 1 9.43934 5.41949 9.3732
132 1 11.5042 2.86271 9.84642
113 1 9.74167 4.54591 12.3381
168 1 11.675 7.78941 0.654207
143 1 9.34076 6.90536 2.50843
149 1 9.57003 7.80162 4.91713
138 1 10.0849 7.07918 3.80222
152 1 11.5013 7.61435 6.79848
158 1 10.6624 7.18151 10.9005
164 1 10.0329 7.83719 9.71219
79 1 11.0063 7.21172 12.1557
172 1 10.1086 10.237 4.3834
173 1 11.0996 11.1543 4.77793
176 1 12.072 10.6394 5.74958
179 1 9.37611 10.6392 3.29271
175 1 9.50786 9.22738 5.13843
182 1 11.5351 9.64286 7.95742
186 1 11.6996 10.7664 7.08612
185 1 9.34676 11.7545 7.54586
183 1 10.6889 9.21913 9.09399
187 1 10.7396 9.94011 10.2688
190 1 11.6796 10.9065 10.5606
191 1 9.64447 9.78406 11.1932
ITEM: TIMESTEP
4000
ITEM: NUMBER OF ATOMS
191
ITEM: BOX BOUNDS pp pp pp
-1.9583575713947363e-01 1.2195835757139417e+01
-1.9583575713947363e-01 1.2195835757139417e+01
-1.9583575713947363e-01 1.2195835757139417e+01
ITEM: ATOMS id type x y z
12 1 1.06847 0.433769 4.87412
118 1 0.0156868 0.501933 3.90335
31 1 2.62821 0.839038 8.79792
32 1 1.20943 0.712363 8.45745
11 1 0.476945 0.70171 7.26708
17 1 2.31806 2.11385 6.21871
13 1 1.22555 1.10597 6.1325
28 1 0.292946 0.886566 9.58935
29 1 0.202255 2.33319 9.95249
30 1 1.24701 2.61003 10.8352
38 1 2.51051 1.9425 10.9506
36 1 2.81344 0.695869 11.5809
105 1 -0.387501 -0.0691224 10.3976
7 1 -0.0132953 4.54741 1.3266
6 1 0.750474 3.63311 0.447107
45 1 0.906485 5.19015 2.13837
4 1 1.45006 2.80591 1.37617
14 1 1.97923 3.43073 6.57035
22 1 0.623732 3.74581 7.03984
63 1 0.400158 4.84522 8.34935
57 1 3.03744 4.42697 6.86186
34 1 1.04113 3.87037 11.509
64 1 1.61223 4.94879 10.7726
66 1 1.64606 4.74734 9.35098
41 1 1.77272 7.23719 2.63387
42 1 1.79801 7.34984 1.2953
39 1 0.517965 7.81158 0.616722
54 1 2.40234 6.37938 5.46178
50 1 2.26742 8.26983 3.6498
40 1 0.956487 6.21133 3.02535
52 1 1.03441 6.14624 5.31485
53 1 0.189565 6.06742 4.18577
60 1 2.87283 7.57196 4.81901
108 1 1.19239 8.35452 8.77712
67 1 1.65351 7.17264 8.34072
71 1 0.661427 6.22678 7.71164
59 1 0.316781 6.67395 6.48728
109 1 0.079851 8.99847 8.41352
75 1 1.52167 8.50522 10.9396
76 1 2.50514 7.43952 11.358
77 1 2.25947 6.05466 11.3811
107 1 1.78088 9.06129 9.77399
89 1 1.35085 10.126 0.656424
84 1 1.25077 10.1287 2.11131
80 1 0.839332 8.99923 -0.162795
96 1 0.975673 10.7162 5.56801
21 1 1.85922 11.5765 4.945
83 1 2.24883 9.62479 3.14424
103 1 3.08383 11.4888 11.5317
3 1 4.95247 1.52514 1.92083
1 1 3.74383 1.9778 1.58357
2 1 5.93999 1.55527 2.85238
16 1 4.02287 0.0200856 5.33871
18 1 3.50355 1.29962 5.97978
10 1 4.61064 2.29486 6.55102
24 1 5.59924 2.20311 8.78782
26 1 5.79481 0.592867 9.02215
9 1 5.59161 2.80052 7.34067
25 1 3.02946 2.04337 9.72965
27 1 4.20857 2.83235 9.36416
37 1 5.90091 2.76839 11.801
48 1 5.59968 5.01784 0.183132
8 1 3.57363 4.29614 1.65198
46 1 4.7949 4.92808 1.44989
44 1 5.49739 5.54914 2.66505
5 1 2.91252 3.03193 1.603
56 1 4.94423 5.68748 5.82961
58 1 5.94194 4.60916 5.7707
70 1 3.18608 5.02375 8.67011
51 1 3.43368 5.5004 5.9448
78 1 5.36735 4.04641 11.6306
69 1 5.05564 4.78375 10.3924
68 1 4.24602 4.24211 9.37879
47 1 4.97732 8.19087 2.33203
49 1 5.73469 6.95656 2.71739
82 1 4.77578 8.86013 1.16239
90 1 3.59144 8.95392 0.469333
43 1 2.85548 7.79058 0.326377
55 1 5.80465 6.94633 5.87319
92 1 5.07186 8.9124 3.64281
73 1 3.99521 7.71247 8.53936
62 1 5.34954 7.41126 8.22425
61 1 5.69857 7.97293 6.9881
65 1 3.00129 6.76162 8.46123
72 1 5.708 6.04513 10.4717
102 1 4.20743 9.0011 9.3021
88 1 3.5698 11.2483 1.67929
91 1 5.82115 9.85102 0.821744
85 1 2.99773 10.4852 0.448593
94 1 5.47708 11.8563 5.51315
97 1 5.62122 10.4801 5.36482
95 1 5.91503 10.003 4.10144
87 1 3.44727 10.8538 3.19374
20 1 3.0891 11.559 4.44088
93 1 5.5368 9.75591 6.60717
100 1 5.36299 10.7055 7.94082
106 1 4.88695 11.9028 8.66031
101 1 5.55811 9.77995 9.07819
33 1 3.45505 12.0956 9.04552
98 1 3.16403 11.0592 10.1906
99 1 3.04914 9.72452 9.7435
15 1 6.52018 0.329917 5.11789
19 1 6.57445 1.09856 3.96212
123 1 8.84666 1.04643 5.09413
121 1 7.95691 0.0349443 5.44319
129 1 8.38633 0.133915 9.15404
134 1 7.00334 2.40159 11.0086
137 1 7.00239 0.235633 9.57873
35 1 6.96891 2.80224 9.61826
130 1 8.3389 2.75813 11.649
147 1 7.82047 5.04356 2.47205
139 1 9.04565 5.65269 2.09427
141 1 6.64308 4.80931 3.23657
150 1 8.13157 3.69019 5.08995
156 1 6.87351 4.36769 4.63284
151 1 8.455 5.28162 7.1114
166 1 7.26542 4.41868 7.82188
23 1 6.27847 3.94678 6.93074
165 1 8.4231 4.78231 10.0036
136 1 8.6696 4.19861 11.2782
167 1 7.57254 4.07889 9.14091
171 1 7.8293 8.65184 1.60184
140 1 7.94694 8.2802 0.185677
142 1 8.13934 7.73319 2.65351
144 1 6.92684 7.35932 3.4779
148 1 7.12333 7.14682 4.93696
154 1 8.48814 6.96847 5.40783
153 1 8.53555 6.62575 6.82641
184 1 8.60427 9.04316 7.48622
162 1 8.81511 7.6255 7.70893
74 1 5.99307 6.97607 9.46001
160 1 7.39808 7.30416 9.59187
81 1 6.1923 6.17177 11.8163
145 1 7.21464 7.082 12.1614
159 1 8.80957 7.27028 9.15625
169 1 6.88472 9.75255 1.79383
174 1 8.08904 11.156 3.21072
170 1 6.84384 10.3602 3.11313
177 1 8.65281 9.67373 6.155
178 1 8.43623 11.2534 6.20045
180 1 7.94957 9.95668 8.68051
181 1 8.69621 11.2386 8.56851
104 1 6.8797 9.7432 9.66907
110 1 7.10635 9.94328 11.035
188 1 8.2676 9.27497 11.7224
86 1 6.05613 10.394 11.9683
115 1 10.8048 1.70776 2.30424
112 1 10.0142 1.69513 1.06508
114 1 9.11874 2.0059 0.150558
116 1 12.1595 1.22955 2.6207
111 1 10.2749 2.19101 3.57318
120 1 10.1145 1.13109 4.45083
126 1 11.1015 0.0762565 4.46056
127 1 10.3512 0.320834 7.57508
131 1 9.55848 1.0021 8.94076
189 1 11.6488 -0.0739909 7.48229
135 1 10.1646 2.13907 9.40514
119 1 9.93591 4.90374 1.27564
117 1 11.14 4.65286 1.95206
113 1 9.52314 4.72976 -0.103891
146 1 10.8408 4.71108 3.3524
124 1 9.64508 3.74853 5.21846
128 1 10.2524 3.5936 3.96772
161 1 10.2237 5.03651 8.6153
155 1 9.73637 4.66865 7.26571
125 1 10.4136 3.8745 6.39807
122 1 11.8097 3.49223 6.37133
133 1 11.5008 4.40073 9.04083
163 1 9.31134 5.66095 9.44052
132 1 11.4554 2.94686 9.46516
168 1 11.7798 7.13009 0.543001
143 1 9.25515 6.85503 2.69367
149 1 9.56687 7.84735 4.86495
138 1 10.2128 7.10772 3.74342
157 1 11.1266 6.01309 3.981
152 1 11.5244 7.43437 6.46866
158 1 10.4381 7.56087 10.9202
164 1 9.90648 8.13975 9.6844
79 1 10.8855 7.0712 12.0532
172 1 10.0512 10.2586 4.39212
173 1 11.2089 11.0258 4.90679
176 1 11.9902 10.6245 5.94342
179 1 9.32226 10.9274 3.35267
175 1 9.45049 9.25554 5.09582
182 1 11.4028 9.7424 8.30646
186 1 11.5449 10.7719 7.31151
185 1 9.30404 11.6001 7.30058
187 1 10.1537 10.3627 10.4799
190 1 10.8493 11.6543 10.6024
191 1 9.53708 9.90798 11.6013
183 1 10.4396 9.4564 9.34081
ITEM: TIMESTEP
5000
ITEM: NUMBER OF ATOMS
191
ITEM: BOX BOUNDS pp pp pp
-1.2048362521879816e-01 1.2120483625218796e+01
-1.2048362521879816e-01 1.2120483625218796e+01
-1.2048362521879816e-01 1.2120483625218796e+01
ITEM: ATOMS id type x y z
116 1 -0.110123 1.2619 2.58808
4 1 1.86956 2.80831 1.62804
12 1 1.12839 0.563509 4.74821
118 1 0.111864 0.752736 3.88305
17 1 2.39204 2.31009 5.96412
31 1 2.72273 0.851984 8.63123
32 1 1.3519 0.758853 8.38552
11 1 0.452501 0.872097 7.27843
13 1 1.24898 1.45245 5.96108
28 1 0.543699 0.852503 9.62958
29 1 0.341576 2.20528 10.0714
30 1 1.41943 2.52274 10.9467
38 1 2.64039 1.79472 10.7603
7 1 0.202008 4.49876 1.23227
6 1 1.05517 3.52873 0.649768
45 1 0.979423 5.46969 1.86889
14 1 2.07763 3.60131 6.65095
22 1 0.639542 3.79572 6.97678
63 1 0.498897 4.57398 8.31239
34 1 1.33952 3.73388 11.6044
64 1 1.60836 4.6942 10.7019
66 1 1.77349 4.41486 9.33336
43 1 2.61272 7.9545 0.521493
42 1 1.49739 8.13453 1.48424
39 1 0.359348 8.39854 0.845701
41 1 1.5442 7.60159 2.74812
40 1 0.972119 6.3848 2.93898
54 1 2.4735 6.63023 5.38323
50 1 2.13726 8.50971 3.63938
53 1 0.173366 6.14667 4.16857
52 1 1.04183 6.10865 5.33893
60 1 2.71887 7.84571 4.75183
108 1 1.22197 8.33053 8.54213
67 1 1.66566 7.04029 8.33893
71 1 0.8488 6.04532 7.6941
59 1 0.407939 6.48658 6.49426
109 1 0.0663367 8.67013 7.86818
75 1 1.22857 8.5704 10.9147
76 1 2.00414 7.46198 11.4578
77 1 1.79263 6.06099 10.9897
107 1 1.72568 8.99386 9.63845
89 1 1.37735 10.4271 0.696888
84 1 1.12917 10.2748 2.15745
96 1 1.33033 10.6173 5.73505
21 1 1.87385 11.6279 4.83453
83 1 2.15685 9.85905 3.13285
176 1 -0.171975 10.6115 6.0097
105 1 0.100998 11.8481 10.3456
80 1 0.78404 9.36573 12.0027
3 1 5.35555 1.24605 1.78218
1 1 4.11305 1.728 1.7366
5 1 3.18356 2.82047 1.95204
16 1 4.10916 0.189029 5.14679
18 1 3.73759 1.61976 5.75756
10 1 4.89609 2.45071 6.21757
24 1 5.65136 2.30902 8.60631
9 1 5.64178 2.96677 7.23591
26 1 5.866 0.721927 8.69697
25 1 3.18104 1.91486 9.52626
36 1 3.08733 0.685606 11.4333
27 1 4.27748 2.79931 9.17975
48 1 5.08885 5.27544 0.261842
8 1 3.86478 4.14783 2.10336
46 1 4.76887 5.15399 1.73096
44 1 5.72453 5.62444 2.64259
56 1 5.01736 5.85202 5.66886
51 1 3.55288 5.70446 5.87171
58 1 6.11264 4.92392 5.85334
70 1 3.01033 5.01613 8.53186
57 1 3.09079 4.6809 6.88532
78 1 4.72796 4.19767 11.6456
69 1 4.73946 4.86328 10.2652
68 1 4.08699 4.2006 9.2678
72 1 5.61023 5.9615 10.349
37 1 5.65327 3.11621 11.6771
47 1 4.87748 8.15056 2.46198
82 1 4.61108 8.82303 1.11733
90 1 3.40895 9.21225 0.424723
49 1 5.69948 7.06382 2.83434
55 1 5.66059 7.10111 5.75153
92 1 4.76456 8.99142 3.5389
65 1 3.02931 6.54635 8.44513
62 1 5.4261 7.30861 8.09003
61 1 5.59407 8.00306 6.85531
73 1 4.13911 7.50749 8.71073
102 1 4.22889 8.74765 9.33959
81 1 5.91676 6.21413 11.7833
88 1 3.57374 11.1859 1.73928
91 1 5.77126 9.78291 0.981176
85 1 2.86084 10.6837 0.392663
94 1 5.50075 11.9106 5.41647
97 1 5.53665 10.3832 5.37244
95 1 5.7328 9.93763 4.03671
20 1 3.26297 11.6145 4.38667
87 1 3.09362 11.0031 3.01344
93 1 5.58891 9.63731 6.59206
100 1 5.32904 10.4268 7.90721
106 1 4.88974 11.8218 8.33661
33 1 3.57062 11.9025 8.93188
98 1 3.24868 10.9807 9.95921
103 1 3.2026 11.4765 11.3649
101 1 5.38967 9.69101 9.11191
99 1 3.06224 9.47417 9.67764
2 1 6.20286 1.28766 2.76637
114 1 8.93474 2.13974 0.28806
15 1 6.69408 0.276286 4.96092
19 1 6.72776 1.25037 3.93532
123 1 8.9849 1.06246 5.27011
121 1 8.04694 0.0775099 5.57137
129 1 8.26835 0.184253 9.52607
134 1 6.84406 2.85405 11.0357
137 1 6.96463 0.665313 9.51508
147 1 7.87504 4.64193 2.44987
139 1 8.90095 5.38977 1.9918
156 1 6.84268 4.46426 4.64497
150 1 8.09455 3.98638 5.02012
141 1 6.7145 4.78343 3.21182
151 1 8.51652 5.26561 7.15252
166 1 7.48301 4.48587 7.73626
23 1 6.37383 4.10937 7.05454
167 1 7.67048 3.96075 9.0592
165 1 8.65657 4.62688 9.89656
136 1 8.83648 4.26132 11.2675
35 1 6.82499 3.04562 9.60493
130 1 8.23484 3.08525 11.7998
171 1 7.74421 8.56351 1.69103
140 1 7.87556 8.05748 0.28485
142 1 8.06195 7.61099 2.66497
145 1 6.99881 6.98213 -0.122332
143 1 9.10526 6.65703 2.67693
144 1 6.98011 7.33786 3.52325
148 1 6.93624 7.17418 4.92768
154 1 8.29985 7.16561 5.5811
153 1 8.30291 6.72027 6.83988
162 1 8.52084 7.78311 7.77349
159 1 8.91344 7.27462 9.11539
74 1 6.21245 6.77189 9.26579
160 1 7.59549 7.07289 9.65489
169 1 6.88854 9.59653 1.87658
174 1 8.12064 10.7832 3.42746
170 1 6.88848 10.1275 3.26046
181 1 8.23898 11.2154 8.71776
178 1 8.53032 11.2033 6.31408
180 1 7.73856 9.95152 8.58858
177 1 8.71827 9.79044 6.32041
185 1 8.9527 11.6415 7.56272
184 1 8.3275 9.19004 7.5907
104 1 6.71697 9.66634 9.68223
110 1 6.99291 9.69888 11.0118
86 1 6.09524 10.275 11.9641
188 1 8.12101 9.09343 11.6551
115 1 10.803 1.72107 2.23405
112 1 9.81893 1.53702 1.13839
111 1 10.3077 2.09532 3.55381
120 1 10.1214 1.00414 4.40477
126 1 11.1975 0.0484869 4.43471
127 1 9.93789 0.337818 7.96658
189 1 11.419 0.0215631 7.46997
135 1 10.2718 2.14372 9.64544
131 1 9.50777 1.13291 9.146
119 1 9.87856 4.77718 1.25346
117 1 11.0986 4.3387 1.8365
113 1 9.79652 4.78889 -0.11029
146 1 10.9765 4.29519 3.34306
124 1 9.48068 3.74701 5.07474
128 1 10.3049 3.36275 4.00319
157 1 11.03 5.69748 3.94036
161 1 10.442 5.12755 8.54578
155 1 9.91507 4.80709 7.23933
125 1 10.4096 3.8836 6.24776
122 1 11.6668 3.46983 6.31096
133 1 11.4823 4.27083 8.99179
163 1 9.40627 5.66733 9.3373
132 1 11.4366 2.96583 9.67552
168 1 11.3227 7.83792 0.923546
149 1 9.51952 7.73092 4.98869
138 1 9.86685 6.67758 3.954
175 1 9.63896 9.12627 5.34023
152 1 12.1104 7.91269 6.72628
158 1 10.6542 7.20481 10.7685
164 1 10.1783 7.98013 9.66963
79 1 10.7931 7.30494 12.1071
172 1 10.2628 10.0242 4.5132
173 1 11.29 10.9194 4.83204
179 1 9.37691 10.4704 3.56321
182 1 11.3485 9.65865 8.28734
186 1 11.4592 10.7547 7.3277
187 1 10.3201 10.182 10.6424
190 1 11.3748 11.0526 10.7904
191 1 9.30794 9.81219 11.4182
183 1 10.5593 9.35765 9.47727
ITEM: TIMESTEP
6000
ITEM: NUMBER OF ATOMS
191
ITEM: BOX BOUNDS pp pp pp
-1.2749053002843247e-01 1.2127490530028401e+01
-1.2749053002843247e-01 1.2127490530028401e+01
-1.2749053002843247e-01 1.2127490530028401e+01
ITEM: ATOMS id type x y z
4 1 1.92929 3.13671 1.64418
12 1 1.19253 0.451762 4.81684
118 1 0.238828 0.621791 3.81684
31 1 2.78852 0.948813 8.79385
32 1 1.36237 0.877975 8.50719
11 1 0.577269 0.839112 7.36736
17 1 2.49617 2.02811 6.13896
13 1 1.30746 1.09689 6.12246
28 1 0.522656 0.829752 9.68381
29 1 0.218196 2.12615 10.1644
30 1 1.30474 2.60958 10.9506
38 1 2.64034 2.05172 10.9493
7 1 0.0241385 4.62075 1.48562
6 1 1.00594 3.80363 0.866561
45 1 0.649534 5.78723 1.88962
14 1 2.03589 3.50817 6.63323