ITEM: TIMESTEP
1000
ITEM: NUMBER OF ATOMS
191
ITEM: BOX BOUNDS pp pp pp
0.0000000000000000e+00 1.2000000000000000e+01
0.0000000000000000e+00 1.2000000000000000e+01
0.0000000000000000e+00 1.2000000000000000e+01
ITEM: ATOMS id type x y z
12 1 1.20509 0.848646 4.8824
1 1 2.45416 2.21262 3.44646
118 1 0.0568909 0.931156 4.21542
31 1 2.7963 1.20012 8.59879
32 1 1.33362 1.11411 8.47168
11 1 0.524598 1.20419 7.34151
17 1 2.71238 2.40746 6.16634
13 1 1.38231 1.67759 6.10224
28 1 0.600435 1.06936 9.68613
29 1 0.380463 2.49177 10.0643
30 1 1.54051 2.88833 10.6729
38 1 2.76966 2.1392 10.5977
4 1 2.18611 3.42645 1.49308
6 1 1.37529 4.1638 0.681185
7 1 0.316389 4.7799 1.23673
5 1 2.72351 3.38718 2.80547
53 1 0.358511 5.83537 4.1516
14 1 2.48962 3.77126 6.47623
22 1 1.04066 4.12647 6.92577
63 1 0.861504 4.89394 8.19573
34 1 1.60511 4.1806 11.3394
64 1 1.84804 5.17285 10.4568
66 1 1.97643 4.87993 9.13738
39 1 0.181589 8.50532 0.712513
43 1 2.65505 8.15867 0.868042
42 1 1.41328 7.99508 1.5577
45 1 0.410238 6.0196 1.6437
40 1 0.607622 6.50916 2.98891
41 1 1.37971 7.70322 2.91852
54 1 2.3679 6.52629 5.21292
50 1 2.14686 8.46843 3.69532
52 1 1.04645 6.21113 5.25484
60 1 2.43505 7.90596 4.88676
59 1 0.319578 6.54721 6.41356
67 1 1.82448 7.31926 8.10585
71 1 0.824954 6.39916 7.65354
108 1 1.50378 8.72625 8.5489
75 1 1.63839 8.73584 10.9
76 1 2.39605 7.75422 11.4558
77 1 2.36185 6.3648 11.1126
89 1 1.68557 10.4378 0.778156
84 1 1.26087 10.293 2.26055
96 1 1.39937 10.5244 5.80047
21 1 1.92503 11.6793 5.0829
83 1 1.97272 9.86486 3.45811
109 1 0.460584 9.13924 7.92927
107 1 1.96788 9.23301 9.68906
80 1 0.964113 9.47731 11.8748
3 1 3.46182 1.23958 3.5408
16 1 4.12741 0.164967 5.50129
2 1 4.94593 1.47411 3.18049
9 1 5.79569 2.82726 7.153
24 1 5.70492 2.43076 8.65892
26 1 5.83625 0.933983 8.58776
10 1 5.33926 2.06308 6.16372
18 1 3.95423 1.52412 6.0336
25 1 3.47206 2.22466 9.36298
36 1 3.1563 1.05003 11.3995
48 1 4.33373 4.65548 0.709691
44 1 5.99016 5.22315 2.44868
46 1 4.83482 4.57961 2.03733
8 1 3.91788 4.06314 2.96916
58 1 5.89245 4.77236 5.62939
56 1 5.05263 5.94244 5.47293
51 1 3.61934 5.79543 5.77172
70 1 3.40603 5.25056 8.37877
57 1 3.29911 4.88631 6.83742
78 1 5.12797 4.29346 11.5245
68 1 4.40579 4.42649 9.42396
69 1 5.059 5.21573 10.3426
27 1 4.47806 3.0505 9.22505
47 1 5.19546 7.94796 2.43487
82 1 4.90455 8.78538 1.39948
92 1 5.0144 8.61295 3.70179
55 1 5.95341 7.18716 5.53858
73 1 4.19161 7.74413 8.55678
62 1 5.53684 7.49362 7.95057
65 1 3.19209 6.8109 8.4114
61 1 5.63671 8.06901 6.60218
72 1 5.55993 6.5066 10.3029
81 1 5.54413 7.76087 11.0694
88 1 3.49987 11.0428 2.1632
85 1 3.16455 10.4098 1.00517
91 1 5.91697 9.71594 1.04399
90 1 3.67653 9.11918 1.0001
94 1 5.51007 11.7138 5.47563
97 1 5.54044 10.2859 5.25334
87 1 3.11333 10.7168 3.43176
20 1 3.18504 11.8843 4.2963
95 1 5.89847 9.73487 4.04418
93 1 5.64775 9.60237 6.45837
100 1 5.39615 10.4731 7.59658
101 1 5.51693 9.71445 8.84227
106 1 4.93343 11.8978 7.96221
33 1 3.59975 11.9983 8.55921
98 1 3.50555 11.1841 9.68144
103 1 3.22428 11.7935 10.9441
99 1 3.27887 9.79207 9.59418
102 1 4.32834 9.07969 9.01661
114 1 8.60925 1.0636 0.341457
15 1 6.28686 1.03729 5.36838
19 1 6.14573 1.31933 3.9212
121 1 7.76238 0.614062 5.91285
128 1 8.88866 2.97665 3.70562
129 1 8.35478 0.18746 9.37563
130 1 8.26103 2.13424 11.4211
137 1 7.02759 0.504277 9.32774
134 1 6.96563 2.54662 10.8961
35 1 6.87822 2.8466 9.43909
147 1 8.12484 3.78741 2.81579
139 1 8.95702 4.71955 2.11283
141 1 6.86754 4.534 3.29409
150 1 8.14886 4.52859 5.47536
156 1 6.87198 4.6036 4.71775
151 1 8.27125 5.07366 6.80782
166 1 7.22697 4.60737 7.64401
23 1 6.11789 4.13615 6.99852
167 1 7.57641 4.01855 8.90824
165 1 8.33637 4.89564 9.7276
37 1 6.09022 3.28999 11.648
49 1 6.32647 6.66491 2.15676
140 1 7.99375 7.68454 0.383597
142 1 8.58072 7.38481 2.5869
145 1 6.96274 6.67636 0.681379
171 1 8.11027 8.45739 1.63405
144 1 7.31434 7.04926 3.2988
148 1 7.18411 7.1601 4.73754
154 1 8.35935 7.1502 5.53352
153 1 8.1698 6.55922 6.73473
162 1 8.58165 7.49694 7.74916
184 1 8.14193 8.93666 7.51019
188 1 7.99517 8.26872 11.0671
74 1 6.48352 6.90777 9.14608
160 1 7.81743 7.2395 9.89896
169 1 7.09657 9.53003 1.87342
174 1 7.97704 10.9841 3.56656
170 1 6.93637 10.1165 3.21665
177 1 8.34338 9.55504 6.12299
178 1 8.10362 11.1346 6.34415
180 1 7.89147 9.70405 8.60484
181 1 8.60636 10.9521 8.71045
185 1 8.91145 11.4014 7.40967
104 1 6.73251 9.58153 9.41521
110 1 6.49943 9.08283 10.8292
86 1 6.07477 10.1283 11.7812
115 1 10.3233 1.23323 2.44296
116 1 11.6482 0.993539 2.82226
112 1 9.70433 1.22206 1.2498
111 1 9.4857 1.66562 3.53701
126 1 10.9251 0.207048 4.75638
120 1 9.76984 1.11383 4.82804
123 1 9.07273 1.35593 5.95414
127 1 9.85358 0.871564 7.35898
189 1 11.3665 0.497339 7.24559
131 1 9.26943 1.27343 8.8753
135 1 9.92736 2.45712 9.72437
136 1 9.31994 2.91918 10.9834
105 1 11.8296 0.0101488 10.1355
119 1 10.0568 4.12402 1.1601
117 1 11.2913 4.10232 1.87838
157 1 11.3328 4.9189 4.17809
124 1 9.18021 3.70881 5.01453
146 1 11.3855 3.97031 3.30822
138 1 10.2186 5.74187 3.89366
161 1 10.2777 4.94223 8.31128
155 1 9.72347 4.77316 7.05922
133 1 11.4486 4.36918 8.8939
122 1 11.7791 3.7662 6.22739
125 1 10.4313 4.01175 6.05778
163 1 9.44619 5.61201 9.18789
113 1 9.86272 3.82653 11.855
132 1 11.2015 3.12199 9.46298
143 1 9.41135 6.11047 2.82495
168 1 11.139 7.60473 0.563201
149 1 9.69535 7.6531 5.41856
152 1 10.827 7.13612 6.19421
159 1 9.168 7.09184 8.9772
158 1 11.2905 7.02504 10.2119
164 1 10.4181 7.84684 9.49228
79 1 11.2299 6.74242 11.5198
172 1 10.0074 10.0659 4.56232
173 1 11.0291 10.7553 5.07982
175 1 9.42791 9.05859 5.30838
179 1 9.28849 10.6904 3.58403
182 1 11.2861 9.8532 8.11419
186 1 11.4828 11.032 7.29613
176 1 11.9937 10.5963 6.03074
187 1 10.2157 9.88624 10.5578
190 1 10.9942 11.1135 10.7664
183 1 10.5117 9.3033 9.2034
191 1 9.03 9.33326 11.045
ITEM: TIMESTEP
2000
ITEM: NUMBER OF ATOMS
191
ITEM: BOX BOUNDS pp pp pp
-9.8349874047055030e-02 1.2098349874047070e+01
-9.8349874047055030e-02 1.2098349874047070e+01
-9.8349874047055030e-02 1.2098349874047070e+01
ITEM: ATOMS id type x y z
4 1 1.87328 2.9102 1.40261
12 1 1.19958 0.716703 4.78916
118 1 0.170607 0.389201 3.81313
13 1 1.26427 1.31227 6.13268
31 1 2.67767 1.00334 8.7918
32 1 1.20849 0.840795 8.56726
11 1 0.552425 0.828853 7.31876
17 1 2.43333 2.13293 6.16349
28 1 0.138624 0.918552 9.62661
29 1 0.150642 2.30195 10.2265
30 1 1.244 2.57281 11.0623
38 1 2.57673 1.85284 10.8355
36 1 2.7889 0.662415 11.506
7 1 0.505561 4.82319 1.38532
6 1 1.20139 3.86637 0.719354
45 1 1.12421 5.84643 2.1077
14 1 2.22334 3.51943 6.61026
22 1 0.84261 3.92406 7.0992
63 1 0.672666 4.77541 8.34132
34 1 1.41907 3.88501 11.6114
64 1 1.81679 4.94683 10.6716
66 1 1.8675 4.70215 9.24516
39 1 0.19716 8.48355 0.916609
43 1 2.57157 8.1629 0.578376
42 1 1.48306 8.05438 1.58207
41 1 1.71179 7.83071 2.95056
54 1 2.4929 6.60077 5.49058
50 1 2.26658 8.77486 3.84897
52 1 0.979609 6.45749 5.60511
40 1 0.933235 6.66433 3.15839
60 1 2.8098 7.95481 5.01467
53 1 0.323527 6.237 4.33608
108 1 1.42976 8.4153 8.56595
67 1 1.77981 7.00503 8.19323
71 1 0.627204 6.18671 7.91918
59 1 0.0779486 6.57869 6.70716
77 1 2.16116 6.23776 11.3304
76 1 2.06918 7.67764 11.5922
75 1 1.38672 8.8059 11.0542
89 1 0.936802 10.64 0.840692
84 1 1.16412 10.6189 2.30174
80 1 0.716504 9.54325 -0.156081
83 1 2.30652 10.0065 3.14906
21 1 1.92766 11.6959 4.84612
96 1 1.36148 10.6072 5.49107
109 1 0.367848 9.03836 8.00194
176 1 -0.0678537 10.721 5.93749
107 1 1.85793 9.0704 9.70103
3 1 4.79322 0.543889 1.90649
1 1 4.01878 1.70402 2.05755
5 1 3.01419 2.67925 2.19827
16 1 4.18774 0.127789 5.32842
18 1 3.8554 1.4443 5.80921
9 1 5.48311 2.90733 7.32692
24 1 5.53105 2.3847 8.70214
10 1 4.94904 1.9891 6.37586
26 1 5.76767 0.938725 9.04851
25 1 3.13959 2.08427 9.5121
48 1 4.27186 5.10562 0.653344
44 1 5.65094 5.26872 2.73315
46 1 4.49172 4.79024 2.03661
8 1 3.52501 3.98959 2.66796
56 1 5.0585 5.77184 5.66209
51 1 3.55071 5.79488 5.9699
58 1 5.91353 4.53298 5.76718
70 1 3.16115 5.1226 8.49797
57 1 3.17111 4.63322 6.81535
78 1 4.88168 4.75259 11.6633
68 1 4.1935 4.45635 9.31696
69 1 4.82867 5.27464 10.3314
37 1 5.68585 3.59521 11.6891
27 1 4.2358 2.93265 9.3094
47 1 5.06455 7.73969 2.40857
82 1 4.77245 8.69753 1.31999
92 1 4.96635 8.27876 3.74322
55 1 5.75679 7.01436 5.53414
73 1 4.11217 7.69088 8.55834
62 1 5.53032 7.49169 8.042
61 1 5.77213 8.07713 6.76264
102 1 4.23461 8.98511 9.2453
65 1 3.09683 6.65018 8.5253
72 1 5.38772 6.50948 10.011
81 1 5.58377 7.60848 10.9557
88 1 3.98721 11.279 1.86015
90 1 3.48535 9.23994 0.803897
85 1 3.54091 10.7633 0.585266
91 1 5.84871 9.64609 1.04769
97 1 5.45712 10.2635 5.29306
94 1 5.56087 11.776 5.32929
95 1 5.62501 9.63849 4.01998
20 1 3.27509 11.6514 4.40186
87 1 3.23392 11.1114 3.09517
93 1 5.42383 9.64149 6.45499
100 1 5.33192 10.5969 7.76337
101 1 5.43187 9.73071 8.87633
33 1 3.45209 11.9962 8.94651
106 1 4.94444 12.1333 8.37673
98 1 3.1781 11.0688 10.1331
103 1 3.10981 11.4147 11.5035
99 1 3.11809 9.65636 9.80891
86 1 6.12748 9.89185 11.893
114 1 8.63719 1.92243 0.433134
2 1 6.0446 0.800504 2.36098
15 1 6.84694 0.211189 4.88654
19 1 6.83724 0.644504 3.47881
121 1 8.06839 0.062714 5.65873
129 1 8.07628 0.238147 9.5964
130 1 8.08497 2.6214 11.5416
137 1 6.72637 0.451428 10.0693
134 1 6.70689 2.90912 11.0872
147 1 7.93011 4.68916 2.45777
139 1 9.04642 5.4004 1.94854
141 1 6.7625 4.51614 3.28138
150 1 8.25421 3.72756 4.9023
156 1 6.91031 4.19456 4.73728
151 1 8.50036 5.24585 6.92357
166 1 7.39054 4.5771 7.68726
23 1 6.20155 4.12021 7.0609
167 1 7.43815 4.02996 9.04798
165 1 8.52036 4.49307 9.77939
35 1 6.51948 3.11997 9.58046
171 1 8.00769 8.52984 1.5916
140 1 7.70722 7.70721 0.352063
142 1 8.37026 7.64425 2.55004
145 1 6.82742 6.63409 0.712023
49 1 6.10694 6.67115 2.23234
144 1 7.23017 7.13747 3.40198
148 1 7.08308 7.03815 4.7717
154 1 8.26913 7.09704 5.44671
153 1 8.27753 6.6371 6.76479
162 1 8.58567 7.59388 7.75032
74 1 6.37364 6.94861 9.08538
188 1 7.8623 8.3828 11.1381
160 1 7.61183 7.32368 9.78148
110 1 6.6351 9.07392 10.8986
159 1 9.02952 7.03447 9.02905
169 1 6.99419 9.45811 1.90103
174 1 8.03416 10.6348 3.74334
170 1 6.87897 9.93327 3.28035
177 1 8.88906 9.74291 6.39405
178 1 8.81805 11.1903 6.38539
180 1 7.87833 9.83727 8.71382
181 1 8.3123 11.2538 8.91639
185 1 9.33278 11.639 7.65934
184 1 8.45938 8.99306 7.66942
104 1 6.70631 9.68594 9.46441
191 1 9.00503 9.35734 10.8901
115 1 10.6896 1.48289 2.13627
112 1 9.79844 1.48611 0.980576
116 1 12.0471 1.03218 2.57174
111 1 10.2006 2.11174 3.35022
126 1 11.1702 0.225212 4.51316
120 1 10.0982 1.21891 4.41548
123 1 9.07895 1.08944 5.29785
127 1 10.1792 0.646742 7.87716
189 1 11.4854 0.166297 7.49157
135 1 9.88533 2.53421 9.83584
131 1 9.45141 1.30993 9.05746
105 1 11.4819 -0.0864794 10.3229
119 1 9.93771 4.77857 1.11148
117 1 11.302 4.67108 1.74793
157 1 11.2367 5.81257 3.89208
124 1 9.73765 3.69222 4.98777
128 1 10.4949 3.36837 3.80041
146 1 11.0811 4.4902 3.22275
161 1 10.4032 5.16845 8.42563
155 1 9.87229 4.71908 7.05887
125 1 10.5132 3.96756 6.17492
122 1 11.9151 3.62578 6.3931
133 1 11.4372 4.43629 8.90985
163 1 9.32839 5.53509 9.20057
136 1 9.11666 3.5233 10.7254
113 1 9.66849 4.41296 12.0294
132 1 11.3622 3.03045 9.53859
143 1 9.28456 6.60865 2.70942
168 1 11.4781 7.4959 0.678523
149 1 9.62549 7.61428 5.02765
138 1 10.0702 6.68654 3.88665
152 1 11.0065 7.17001 6.25092
158 1 11.0163 7.34103 10.5184
164 1 10.2775 7.81809 9.46696
79 1 10.8113 7.24231 11.7857
172 1 10.3102 10.0127 4.52695
173 1 11.2197 11.0764 4.91767
179 1 9.40261 10.5369 3.60988
175 1 9.70826 9.04224 5.23234
182 1 11.4241 9.81191 8.1682
186 1 11.6109 10.9563 7.32596
187 1 10.078 9.97489 10.1459
190 1 10.544 11.2054 10.425
183 1 10.4897 9.32924 9.05482
ITEM: TIMESTEP
3000
ITEM: NUMBER OF ATOMS
191
ITEM: BOX BOUNDS pp pp pp
-1.7916809855719737e-01 1.2179168098557209e+01
-1.7916809855719737e-01 1.2179168098557209e+01
-1.7916809855719737e-01 1.2179168098557209e+01
ITEM: ATOMS id type x y z
4 1 2.08093 2.76759 1.24422
12 1 0.928703 0.641534 4.95231
118 1 -0.223568 0.82823 4.08766
31 1 2.84337 0.81584 9.06159
32 1 1.33891 0.521782 8.76822
11 1 0.596798 0.72156 7.48054
13 1 1.16075 1.37264 6.24986
17 1 2.34244 2.23497 6.2101
28 1 0.381069 0.667974 10.1408
29 1 0.272997 2.03462 10.3111
30 1 1.31096 2.51631 11.1616
38 1 2.59497 1.82253 11.0931
36 1 2.79091 0.643427 11.765
7 1 0.334305 4.51864 1.55093
6 1 1.10419 3.64034 0.733816
45 1 1.07777 5.54849 2.2018
14 1 2.05566 3.67517 6.25377
63 1 0.296743 5.19105 8.66951
22 1 0.580258 3.84931 6.05246
57 1 2.81446 4.79856 6.80702
34 1 1.2131 3.89248 11.7213
64 1 1.80515 4.88058 10.8906
66 1 1.65889 4.78018 9.24604
39 1 0.530137 8.00453 0.836379
41 1 1.83919 7.56334 2.79521
42 1 1.82034 7.89364 1.41324
54 1 2.27759 6.787 5.61137
50 1 2.14802 8.68562 3.79447
52 1 0.807583 6.58135 5.56293
53 1 0.218658 6.36109 4.2074
40 1 1.12865 6.44567 3.1876
60 1 2.69924 8.01435 4.82858
108 1 1.18354 8.3987 8.94822
67 1 1.49668 7.22129 8.33168
71 1 0.31216 6.44758 7.97002
77 1 2.34712 6.09591 11.3598
76 1 2.46369 7.43592 11.7189
75 1 1.4601 8.54696 11.2383
107 1 1.80544 9.02516 9.94196
89 1 0.79582 10.3534 0.819721
84 1 1.12114 10.2599 2.09505
80 1 0.742403 9.22842 -0.0371008
96 1 1.02842 10.5974 5.6599
21 1 1.621 11.7025 4.95646
83 1 2.0466 10.0134 3.10313
109 1 0.402745 9.17594 8.1806
105 1 -0.0961732 11.8616 10.6549
3 1 4.68594 0.221842 1.91434
1 1 4.13553 1.43909 1.45913
2 1 6.02239 0.313345 2.54351
5 1 3.45419 2.50742 1.73675
16 1 4.00712 0.182268 5.07067
18 1 3.67436 1.61985 5.77073
10 1 4.71444 2.31017 6.33467
24 1 5.47238 2.28567 8.67612
26 1 5.58605 0.767487 8.58495
25 1 3.1927 2.00026 9.90299
27 1 4.22993 2.87636 9.43777
48 1 4.68123 5.52572 0.481214
44 1 5.69727 5.32997 2.60412
46 1 4.77302 4.87179 1.77281
8 1 4.13487 3.7468 2.28686
58 1 5.75779 4.78459 5.67184
56 1 4.92299 5.90702 5.67209
51 1 3.34782 5.89229 5.92974
70 1 3.04399 5.08469 8.48077
9 1 5.39162 2.9338 7.2975
78 1 5.16501 4.84392 11.6926
68 1 4.14904 4.34431 9.30796
69 1 4.91224 5.37983 10.416
37 1 5.9809 3.66122 11.7348
47 1 5.08936 7.72301 2.24386
82 1 5.05394 8.63452 1.13676
49 1 5.86479 6.70409 2.74358
90 1 3.81166 9.0648 0.726585
43 1 2.86524 7.97276 0.50899
92 1 4.93288 8.70139 3.43905
55 1 5.73833 7.2463 5.69481
73 1 4.14962 7.68893 8.5848
62 1 5.52536 7.58868 8.02056
61 1 5.5897 8.18376 6.72302
65 1 2.97207 6.70618 8.61266
72 1 5.63814 6.6531 10.2993
81 1 5.52196 7.75316 11.2628
88 1 3.90615 11.356 2.1227
85 1 3.76656 10.7334 0.688758
97 1 5.57959 10.2053 5.30516
94 1 5.32247 11.713 5.23235
87 1 3.06615 11.1124 3.28677
20 1 2.95614 11.7662 4.54275
95 1 5.80134 9.61734 3.92677
93 1 5.61663 9.65637 6.55309
100 1 5.25823 10.599 7.75129
106 1 4.77233 12.0443 8.30688
101 1 5.3687 9.8284 8.8413
102 1 4.10458 9.09264 8.95274
98 1 3.27647 11.0775 10.278
103 1 3.44859 11.4049 11.8295
99 1 3.10393 9.71298 9.82935
33 1 3.50397 11.8763 9.09199
114 1 8.87421 1.86503 0.305587
123 1 8.6311 0.873999 5.09504
15 1 6.59376 -0.106311 4.91089
121 1 7.90101 -0.087136 5.67672
19 1 6.85334 -0.144423 3.53928
129 1 8.20852 0.427115 9.32987
130 1 8.26707 2.63714 11.6074
137 1 6.83417 0.503282 9.16512
134 1 6.92491 2.80525 11.0255
147 1 7.86413 4.57349 2.33392
139 1 9.09278 5.35963 1.92742
141 1 6.73972 4.51357 3.16371
150 1 8.04764 3.7603 5.12578
156 1 6.63997 4.26818 4.56407
151 1 8.42936 5.40064 7.22457
166 1 7.30175 4.67949 7.6592
23 1 6.02576 4.29092 6.92422
167 1 7.3428 4.02855 8.95524
165 1 8.35202 4.52393 9.81337
35 1 6.75081 2.9859 9.56468
171 1 7.8603 8.16075 1.43127
140 1 7.75181 7.6435 0.0804445
142 1 8.16533 7.41596 2.55046
144 1 7.01218 7.09387 3.41132
148 1 7.00311 7.12728 4.81136
154 1 8.27312 7.08105 5.52043
153 1 8.24716 6.73597 6.76571
162 1 8.57741 7.71933 7.76776
188 1 8.02259 8.47015 11.2235
160 1 7.8505 7.5217 9.79611
145 1 7.18605 6.39057 12.1886
74 1 6.4865 7.01264 9.14979
169 1 7.09591 9.32071 1.74259
91 1 6.16927 9.46462 0.829359
174 1 7.69793 11.1062 3.23655
170 1 6.99245 9.87361 3.03962
177 1 8.84808 9.88431 6.25413
178 1 8.72801 11.3415 6.39149
180 1 7.79144 10.1573 8.78891
181 1 8.52633 11.5368 8.76573
184 1 8.44785 9.10813 7.49178
104 1 6.5865 9.84745 9.65141
86 1 6.26119 10.0913 11.9885
110 1 6.69446 9.12347 10.9539
115 1 10.7854 1.66527 2.28923
112 1 10.008 1.62942 1.00558
116 1 12.0401 1.13733 2.71826
111 1 10.1517 2.19533 3.49509
126 1 10.9883 0.197016 4.56126
120 1 9.89621 1.06769 4.46589
127 1 10.2775 0.429395 8.23995
189 1 11.5066 0.11845 7.65198
135 1 10.1182 2.51779 9.99898
131 1 9.56879 1.23784 9.23081
119 1 10.1281 4.88739 0.977977
117 1 11.2744 4.67948 1.72366
146 1 11.0704 4.68433 3.23052
124 1 9.45594 3.91165 4.98075
128 1 10.1478 3.6653 3.728
161 1 10.2909 4.88032 8.53195
155 1 9.73153 4.80342 7.26602
125 1 10.3075 4.15088 6.13219
122 1 11.6146 3.79348 6.00063
133 1 11.4845 4.41482 8.98244
163 1 9.27532 5.45995 9.32342
136 1 9.24073 3.42067 10.8459
113 1 9.95336 4.32594 11.9138
132 1 11.4748 2.98269 9.7912
168 1 11.7603 7.29657 0.626338
143 1 9.36216 6.65324 2.61581
149 1 9.62083 7.71334 5.16738
138 1 10.1234 6.83068 3.78033
157 1 11.185 5.98046 3.83825
152 1 10.8268 7.37183 6.25247
159 1 9.09854 7.16144 9.01197
59 1 12.0744 6.84296 6.64487
158 1 11.1554 7.30496 10.3629
164 1 10.2944 7.99594 9.42333
79 1 11.4483 6.77657 11.5968
172 1 10.1155 10.276 4.25408
173 1 11.0996 11.1147 4.88615
179 1 9.12393 10.7662 3.35856
175 1 9.60351 9.25804 5.33145
176 1 11.9125 10.5915 5.93921
182 1 11.52 9.91389 8.30346
186 1 11.4494 10.9221 7.27582
185 1 9.26074 11.9405 7.60788
187 1 10.3475 10.0499 10.6376
190 1 11.4054 11.0089 11.0964
183 1 10.7569 9.42936 9.40091
191 1 9.16571 9.59294 11.1848
ITEM: TIMESTEP
4000
ITEM: NUMBER OF ATOMS
191
ITEM: BOX BOUNDS pp pp pp
-1.0494824873716710e-01 1.2104948248737184e+01
-1.0494824873716710e-01 1.2104948248737184e+01
-1.0494824873716710e-01 1.2104948248737184e+01
ITEM: ATOMS id type x y z
116 1 0.0381395 1.44585 2.34098
12 1 1.04222 0.780471 4.64658
118 1 0.0816658 0.898617 3.64526
13 1 1.13856 1.50374 5.8739
17 1 2.37889 2.33801 5.93611
11 1 0.593282 0.859822 7.04949
32 1 1.39333 1.09176 8.22181
31 1 2.73246 0.968767 8.72092
28 1 0.572297 1.2223 9.44749
29 1 0.214399 2.39707 10.1079
30 1 1.29125 2.62101 11.0134
38 1 2.49778 1.79679 11.0111
36 1 2.62957 0.536954 11.6416
7 1 0.480498 4.62326 1.59887
6 1 1.21936 3.87592 0.782818
45 1 1.38674 5.3356 2.44393
4 1 2.05917 2.97408 1.42265
14 1 2.1666 3.68646 6.35926
63 1 0.417281 5.20702 8.6744
22 1 0.828751 3.94616 6.25845
57 1 2.90684 4.79801 6.97035
34 1 1.28718 3.89107 11.6018
64 1 1.57697 4.98237 10.8242
66 1 1.64746 4.74974 9.36348
42 1 1.45216 7.90901 1.43464
43 1 2.58264 7.92126 0.66314
39 1 0.245316 7.98559 0.65789
41 1 1.63736 7.69324 2.78101
54 1 2.5717 6.99821 5.61848
50 1 2.09817 8.68489 3.60273
52 1 0.957467 6.64629 5.64207
40 1 1.24627 6.39625 3.24397
53 1 0.377161 6.2985 4.34692
108 1 1.34112 8.61952 8.68089
67 1 1.65549 7.25301 8.43377
71 1 0.515513 6.34689 8.00653
59 1 0.0313269 6.71783 6.67945
77 1 2.00759 6.1674 11.4051
76 1 2.31267 7.46029 11.5785
75 1 1.4872 8.56718 11.0163
89 1 0.597136 10.4355 0.598344
84 1 1.17639 10.417 1.99459
83 1 2.14013 10.0346 2.92209
96 1 1.03714 10.6483 5.20789
21 1 1.69265 11.8081 4.65956
109 1 0.543423 9.21049 7.82734
107 1 1.92467 9.12834 9.88269
80 1 0.48969 9.22154 11.9456
3 1 4.62752 0.264967 1.93377
1 1 3.88994 1.28455 1.29884
2 1 5.89497 0.266519 2.57964
5 1 3.27069 2.5494 1.7344
16 1 3.93756 0.213689 5.16278
18 1 3.63451 1.55571 5.7275
10 1 4.69949 2.33689 6.36046
24 1 5.35183 2.76758 8.60818
26 1 5.75286 0.274686 8.58992
25 1 3.24014 1.87696 9.76334
37 1 5.79524 2.84652 11.5821
48 1 4.86904 4.8524 0.476155
8 1 4.00308 3.5482 2.3159
46 1 4.71008 4.70651 1.82704
44 1 5.74852 5.442 2.62745
58 1 5.92294 4.89529 5.50131
56 1 5.02205 6.02603 5.92529
9 1 5.51558 3.09835 7.14226
70 1 2.92152 5.00076 8.62373
78 1 5.02367 3.85633 11.534
69 1 4.85288 4.70222 10.3338
68 1 3.85828 4.33976 9.42792
27 1 4.02142 2.95452 9.18298
82 1 4.74775 8.77435 1.56797
47 1 4.65322 7.90467 2.85715
49 1 5.67394 6.86534 2.9688
92 1 4.37918 8.54791 4.12185
60 1 3.04062 8.1801 4.74593
55 1 5.97416 7.23651 6.0168
73 1 4.06138 7.69542 8.86183
62 1 5.35632 7.41186 8.37958
61 1 5.65855 8.08608 7.04901
65 1 3.07842 6.76778 8.74007
51 1 3.63079 6.04112 6.22085
102 1 4.315 8.84487 9.65657
81 1 4.90036 6.25602 11.9661
72 1 5.22962 6.02743 10.5112
88 1 3.89068 11.3535 2.0109
85 1 3.66849 10.6104 0.700175
90 1 3.45586 9.07508 0.801323
91 1 5.89945 9.29755 1.08676
97 1 5.53918 10.2875 5.63239
94 1 5.50141 11.7874 5.43726
95 1 5.5334 9.4911 4.37813
87 1 3.22838 10.8757 3.09936
20 1 2.9912 11.8058 4.2533
93 1 5.24495 9.54288 6.84944
100 1 5.15352 10.2392 8.05542
106 1 4.72381 11.5825 8.30433
33 1 3.42581 11.8752 8.9574
98 1 3.37344 11.0139 10.2392
99 1 3.21625 9.65693 9.95359
103 1 3.35544 11.4464 11.6778
101 1 5.58788 9.45665 9.19389
123 1 9.0039 1.05986 5.14483
121 1 8.10936 0.0397215 5.54179
15 1 6.73199 0.0730607 5.01162
129 1 8.21539 0.624819 9.19035
130 1 8.13497 2.51777 11.4665
137 1 6.84778 0.767792 9.30539
134 1 6.87244 2.6349 10.7524
35 1 6.59449 2.88525 9.4116
147 1 7.96817 4.55968 2.34141
156 1 6.87993 4.50092 4.56396
150 1 8.19372 4.08192 4.82575
141 1 6.84963 4.80658 3.14527
151 1 8.28839 5.37619 7.17041
166 1 7.28623 4.65952 7.71082
23 1 6.24024 4.16637 6.77633
165 1 8.35517 4.58408 9.95848
167 1 7.19256 4.20296 9.08429
171 1 7.95005 8.41618 1.71467
140 1 8.36991 8.26005 0.349898
142 1 8.21946 7.41245 2.74898
144 1 6.99111 7.29476 3.61914
148 1 7.11071 7.40981 4.99067
154 1 8.42785 7.06547 5.60484
153 1 8.30535 6.77855 6.91698
162 1 8.61524 7.63474 7.97508
74 1 6.05903 6.7772 9.70523
160 1 7.37488 6.94465 9.92561
159 1 8.62199 6.90889 9.30664
145 1 8.95525 7.11077 12.0819
169 1 6.80191 9.10221 2.1538
174 1 7.42375 10.7102 3.56379
170 1 6.67723 9.57132 3.39214
179 1 8.85625 10.753 3.4153
19 1 6.74713 11.9554 3.54498
177 1 8.85657 9.67445 6.41235
178 1 8.7323 11.2143 6.32874
180 1 8.03543 10.1317 8.74591
181 1 8.45789 11.4993 8.58795
184 1 8.5796 9.02477 7.79039
104 1 6.90518 9.58239 9.65031
110 1 7.11809 9.64733 11.0417
188 1 8.40942 9.43706 11.636
86 1 6.06349 9.71254 12.0137
115 1 11.0096 2.09623 2.07631
112 1 10.236 1.92213 0.851348
114 1 9.10882 1.90935 0.110449
111 1 10.1626 2.25707 3.29819
126 1 11.1108 0.319958 4.15275
120 1 10.077 1.17963 4.20493
127 1 10.2567 0.624606 7.73556
189 1 11.4908 0.152907 7.32978
131 1 9.57486 1.32059 9.05684
135 1 9.88004 2.60471 9.74625
105 1 12.1471 0.11408 9.90155
119 1 10.1627 4.63619 1.29862
117 1 11.4303 4.56222 1.95521
139 1 9.19838 5.13432 2.21427
113 1 9.88904 4.22188 0.00171824
146 1 11.1728 4.52891 3.37132
124 1 9.50993 3.8751 5.08878
128 1 10.3485 3.48952 3.91815
157 1 11.2816 5.80176 4.14178
161 1 10.2507 5.11072 8.68384
155 1 9.69617 4.96062 7.38027
125 1 10.3118 4.27054 6.22775
122 1 11.7503 3.92416 6.17715
163 1 9.17727 5.60886 9.45195
132 1 11.2474 3.13719 9.74816
136 1 9.11889 3.64318 10.7756
133 1 11.4494 4.37028 9.1
168 1 11.3223 7.11605 0.404889
143 1 9.24578 6.43716 2.74863
149 1 9.76717 7.54753 5.07415
138 1 10.0252 6.56375 3.82855
152 1 10.8752 7.01722 6.27825
158 1 10.9094 7.15354 10.3943
79 1 10.3169 7.0167 11.5879
164 1 10.8619 8.02245 9.36515
172 1 10.0477 10.2891 4.31031
173 1 11.0994 11.2212 4.62436
176 1 11.8766 10.6594 5.61797
175 1 9.69239 9.11159 5.27763
182 1 11.5346 9.95556 7.81936
186 1 11.4782 10.9557 6.90593
185 1 9.32368 11.7869 7.57225
183 1 10.6461 9.40044 8.86426
187 1 10.4431 10.2361 10.0367
190 1 11.5462 11.1222 10.1744
191 1 9.44213 9.8469 10.9325
ITEM: TIMESTEP
5000
ITEM: NUMBER OF ATOMS
191
ITEM: BOX BOUNDS pp pp pp
-7.8473498143992529e-02 1.2078473498144051e+01
-7.8473498143992529e-02 1.2078473498144051e+01
-7.8473498143992529e-02 1.2078473498144051e+01
ITEM: ATOMS id type x y z
12 1 0.856299 0.68919 4.79767
17 1 2.42561 2.24177 5.99992
11 1 0.623697 1.2127 7.33079
32 1 1.31852 0.878996 8.49943
13 1 1.27024 1.45524 6.07645
31 1 2.72761 0.780029 8.62643
28 1 0.422748 1.0723 9.71022
29 1 0.271431 2.48217 10.0431
30 1 1.32887 2.68529 10.9466
38 1 2.5796 1.89495 10.7692
105 1 0.18112 0.216237 10.7393
36 1 2.77498 0.547666 11.4521
6 1 1.26272 3.95459 0.668842
7 1 0.178536 4.54565 1.33044
45 1 0.308145 5.88475 1.59053
4 1 2.0743 3.08937 1.37093
53 1 0.482225 5.96373 4.09395
63 1 0.555067 5.21761 8.46944
14 1 2.09907 3.62912 6.31808
22 1 0.739219 3.9427 6.14333
34 1 1.52033 3.99824 11.4542
64 1 1.83798 5.06107 10.5507
66 1 1.76927 4.89103 9.11379
42 1 1.84506 7.80539 1.23578
43 1 2.88164 8.00017 0.411579
39 1 0.583403 7.9789 0.620412
41 1 1.59509 7.55927 2.58346
40 1 0.805229 6.50706 2.79168
168 1 -0.0939792 6.78331 0.490373
54 1 2.71992 6.76236 5.10867
50 1 1.89333 8.77244 3.43261
52 1 1.21276 6.48462 5.24203
108 1 1.36506 8.65602 8.51689
67 1 1.7104 7.26049 8.1505
71 1 0.596156 6.44696 7.69558
59 1 0.279511 6.70544 6.33544
77 1 2.37775 6.42453 10.8464
76 1 2.40219 7.69484 11.2957
75 1 1.42219 8.69579 10.8094
80 1 0.510655 8.96604 11.8832
83 1 1.66383 10.1128 2.77629
84 1 0.697422 10.3647 1.73028
89 1 0.319897 10.3916 0.288608
87 1 2.85982 11.1102 2.97849
96 1 0.81649 10.5733 5.43516
21 1 1.53796 11.622 4.76496
20 1 2.94859 11.7088 4.26712
109 1 0.764 9.52789 7.69617
107 1 1.95691 9.14632 9.61414
3 1 4.61563 0.561539 2.04916
1 1 4.13499 1.79279 1.72051
2 1 6.0041 0.638635 2.72077
5 1 3.36517 2.76035 1.94653
16 1 3.91772 0.174151 5.23796
18 1 3.68971 1.42148 5.9924
10 1 4.88593 1.96937 6.46109
24 1 5.36865 2.82452 8.63151
9 1 5.63979 2.78567 7.28736
25 1 3.19483 2.04743 9.52219
26 1 5.82585 0.344362 9.42727
48 1 4.99876 5.4312 0.479553
8 1 4.03879 3.92506 2.39952
46 1 4.8671 4.98513 1.8219
44 1 5.67973 5.47051 2.77952
58 1 5.96486 4.60383 5.67974
56 1 5.14143 5.90724 5.63715
51 1 3.70604 5.78756 5.67995
57 1 3.05202 4.80327 6.68865
70 1 2.99838 5.26533 8.22567
27 1 3.9984 2.98108 9.04167
78 1 4.81932 4.33868 11.5956
69 1 4.61351 5.03741 10.3574
68 1 4.09972 4.55739 9.07813
37 1 5.5042 3.11993 11.6323
82 1 4.83262 8.65967 1.54718
47 1 4.83074 7.76528 2.64891
49 1 5.85431 6.83709 2.90415
92 1 4.46474 8.43883 3.91014
60 1 3.15811 8.05353 4.46497
55 1 5.86725 7.02545 5.73731
73 1 4.09711 7.57782 8.49096
62 1 5.45201 7.19008 8.12116
61 1 5.83646 8.04409 6.92254
65 1 2.96237 6.78204 8.24464
102 1 4.38949 8.83514 9.40215
81 1 5.40819 6.59723 11.959
72 1 5.34398 6.31366 10.5396
88 1 3.68784 11.5857 1.83491
85 1 3.50888 10.7915 0.534296
90 1 3.69503 9.24323 0.714686
91 1 5.961 9.30175 1.28649
97 1 5.18419 10.2594 5.60982
94 1 5.17935 11.7054 5.47003
95 1 5.39208 9.64404 4.30207
93 1 5.63758 9.65735 6.88758
100 1 5.44785 10.3365 8.14008
106 1 5.03229 11.6553 8.59177
33 1 3.56901 11.7333 8.73474
98 1 3.26824 10.9333 10.0054
99 1 3.27936 9.61266 9.70713
103 1 3.30951 11.3201 11.3627
101 1 5.58767 9.5646 9.35418
114 1 8.51163 1.7953 0.38027
123 1 8.72437 1.05943 5.39148
121 1 7.64099 0.225279 5.97043
15 1 6.42299 0.119189 5.06841
19 1 6.82406 -0.0106031 3.65448
129 1 8.46501 0.424034 9.74181
130 1 8.13757 2.59247 11.4296
134 1 6.73858 2.79398 10.9507
137 1 7.06762 0.428806 10.0128
147 1 7.87532 4.38845 2.42624
156 1 6.87662 4.22235 4.58256
150 1 8.23493 4.32715 4.90901
141 1 6.66435 4.43533 3.26026
151 1 8.37294 5.28324 7.06109
166 1 7.4113 4.46597 7.65394
23 1 6.41595 3.85418 6.92792
165 1 8.42748 4.501 9.91862
35 1 6.50881 3.06471 9.50454
167 1 7.35155 4.16716 9.05876
171 1 8.09112 8.33194 1.80543
140 1 8.8514 8.5791 0.635851
142 1 8.28299 7.24527 2.67806
144 1 7.09887 7.18252 3.41957
148 1 7.14092 7.16971 4.85818
154 1 8.32205 7.1287 5.58115
153 1 8.49781 6.71238 6.90512
162 1 8.51753 7.66426 7.96083
159 1 8.74589 6.94165 9.16476
160 1 7.5166 6.90934 9.81456
74 1 6.05062 6.96207 9.58515
169 1 6.91679 9.12439 2.24606
86 1 6.35334 9.99715 0.200397
174 1 7.51653 11.0087 3.39875
170 1 6.63505 9.85033 3.43972
179 1 8.85924 10.8787 3.34869
175 1 8.93722 9.38612 5.30697
177 1 8.4309 9.88837 6.61134
178 1 8.17022 11.2625 6.74872
184 1 8.32554 9.06064 7.79701
180 1 8.11372 9.81681 8.92453
104 1 7.01721 9.5808 9.86602
110 1 7.27105 9.71375 11.236
188 1 8.56026 9.50253 11.7525
181 1 8.64671 11.3283 9.01069
115 1 10.438 1.59532 2.14228
112 1 9.56568 1.33689 1.02895
116 1 11.7291 1.24816 2.6513
111 1 9.6832 2.10709 3.22463
126 1 10.6999 0.278956 4.35389
120 1 9.52816 1.08589 4.30002
118 1 11.9157 0.892489 4.02143
127 1 10.0927 0.745013 7.97472
189 1 11.5135 0.445816 7.33054
135 1 9.96664 2.59397 9.85509
131 1 9.45114 1.32318 9.28255
119 1 10.0304 4.48912 1.17549
117 1 11.1935 3.96372 1.70605
139 1 9.10096 5.01129 2.08993
146 1 11.1437 4.11368 3.23773
124 1 9.52476 3.74492 5.03806
128 1 10.0987 3.30141 3.8101
157 1 11.3 5.3376 3.9919
161 1 10.1784 4.98717 8.51672
155 1 9.76847 4.84193 7.17773
122 1 11.5877 3.62965 6.13065
125 1 10.2735 3.94687 6.21729
133 1 11.5302 4.42988 8.7919
163 1 9.31512 5.59615 9.40209
132 1 11.2551 3.27501 9.5974
113 1 9.75088 4.15111 11.9365
136 1 9.10757 3.49617 10.828
143 1 9.24493 6.26158 2.83626
145 1 9.63227 7.40755 0.232053
149 1 9.82344 7.09628 5.02647
138 1 10.2102 6.2992 3.88477
152 1 11.0876 7.05567 5.91061
158 1 11.1922 7.15303 10.4075
164 1 11.3498 8.22188 9.63477
79 1 10.8959 6.83986 11.7548
172 1 9.60914 10.3371 4.44234
173 1 10.6599 11.1389 4.84477
176 1 11.6368 10.6614 5.80754
182 1 11.6518 10.0577 8.17343
186 1 11.4027 11.1249 7.14965
185 1 9.01755 11.6919 7.8091
187 1 10.9235 10.317 10.6771
183 1 11.1831 9.59899 9.43513
191 1 9.53686 10.2536 11.3113
190 1 11.809 11.155 11.3633
ITEM: TIMESTEP
6000
ITEM: NUMBER OF ATOMS
191
ITEM: BOX BOUNDS pp pp pp
-1.2997404701704132e-01 1.2129974047017120e+01
-1.2997404701704132e-01 1.2129974047017120e+01
-1.2997404701704132e-01 1.2129974047017120e+01
ITEM: ATOMS id type x y z
12 1 0.853416 0.530609 4.91665
17 1 2.33781 2.15347 6.07156
11 1 0.699303 0.754886 7.32059
32 1 1.33324 0.644522 8.59817
31 1 2.80009 0.702612 8.71515
13 1 1.09705 1.29667 6.06149
28 1 0.524365 1.01228 9.79563
29 1 0.377446 2.42533 9.93039
30 1 1.43897 2.78188 10.7961
38 1 2.7249 1.86157 10.8564
105 1 0.142565 0.198654 10.8545
6 1 1.08965 3.95506 0.663287
7 1 0.0224291 4.65487 1.17284
4 1 1.75276 2.95911 1.41699
63 1 0.395536 5.32211 8.53878
14 1 2.00229 3.62461 6.31474
22 1 0.605543 3.98995 5.98875