ITEM: TIMESTEP
1000
ITEM: NUMBER OF ATOMS
191
ITEM: BOX BOUNDS pp pp pp
0.0000000000000000e+00 1.2000000000000000e+01
0.0000000000000000e+00 1.2000000000000000e+01
0.0000000000000000e+00 1.2000000000000000e+01
ITEM: ATOMS id type x y z
12 1 1.20509 0.848646 4.8824
1 1 2.45416 2.21262 3.44646
118 1 0.0568909 0.931156 4.21542
31 1 2.7963 1.20012 8.59879
32 1 1.33362 1.11411 8.47168
11 1 0.524598 1.20419 7.34151
17 1 2.71238 2.40746 6.16634
13 1 1.38231 1.67759 6.10224
28 1 0.600435 1.06936 9.68613
29 1 0.380463 2.49177 10.0643
30 1 1.54051 2.88833 10.6729
38 1 2.76966 2.1392 10.5977
4 1 2.18611 3.42645 1.49308
6 1 1.37529 4.1638 0.681185
7 1 0.316389 4.7799 1.23673
5 1 2.72351 3.38718 2.80547
53 1 0.358511 5.83537 4.1516
14 1 2.48962 3.77126 6.47623
22 1 1.04066 4.12647 6.92577
63 1 0.861504 4.89394 8.19573
34 1 1.60511 4.1806 11.3394
64 1 1.84804 5.17285 10.4568
66 1 1.97643 4.87993 9.13738
39 1 0.181589 8.50532 0.712513
43 1 2.65505 8.15867 0.868042
42 1 1.41328 7.99508 1.5577
45 1 0.410238 6.0196 1.6437
40 1 0.607622 6.50916 2.98891
41 1 1.37971 7.70322 2.91852
54 1 2.3679 6.52629 5.21292
50 1 2.14686 8.46843 3.69532
52 1 1.04645 6.21113 5.25484
60 1 2.43505 7.90596 4.88676
59 1 0.319578 6.54721 6.41356
67 1 1.82448 7.31926 8.10585
71 1 0.824954 6.39916 7.65354
108 1 1.50378 8.72625 8.5489
75 1 1.63839 8.73584 10.9
76 1 2.39605 7.75422 11.4558
77 1 2.36185 6.3648 11.1126
89 1 1.68557 10.4378 0.778156
84 1 1.26087 10.293 2.26055
96 1 1.39937 10.5244 5.80047
21 1 1.92503 11.6793 5.0829
83 1 1.97272 9.86486 3.45811
109 1 0.460584 9.13924 7.92927
107 1 1.96788 9.23301 9.68906
80 1 0.964113 9.47731 11.8748
3 1 3.46182 1.23958 3.5408
16 1 4.12741 0.164967 5.50129
2 1 4.94593 1.47411 3.18049
9 1 5.79569 2.82726 7.153
24 1 5.70492 2.43076 8.65892
26 1 5.83625 0.933983 8.58776
10 1 5.33926 2.06308 6.16372
18 1 3.95423 1.52412 6.0336
25 1 3.47206 2.22466 9.36298
36 1 3.1563 1.05003 11.3995
48 1 4.33373 4.65548 0.709691
44 1 5.99016 5.22315 2.44868
46 1 4.83482 4.57961 2.03733
8 1 3.91788 4.06314 2.96916
58 1 5.89245 4.77236 5.62939
56 1 5.05263 5.94244 5.47293
51 1 3.61934 5.79543 5.77172
70 1 3.40603 5.25056 8.37877
57 1 3.29911 4.88631 6.83742
78 1 5.12797 4.29346 11.5245
68 1 4.40579 4.42649 9.42396
69 1 5.059 5.21573 10.3426
27 1 4.47806 3.0505 9.22505
47 1 5.19546 7.94796 2.43487
82 1 4.90455 8.78538 1.39948
92 1 5.0144 8.61295 3.70179
55 1 5.95341 7.18716 5.53858
73 1 4.19161 7.74413 8.55678
62 1 5.53684 7.49362 7.95057
65 1 3.19209 6.8109 8.4114
61 1 5.63671 8.06901 6.60218
72 1 5.55993 6.5066 10.3029
81 1 5.54413 7.76087 11.0694
88 1 3.49987 11.0428 2.1632
85 1 3.16455 10.4098 1.00517
91 1 5.91697 9.71594 1.04399
90 1 3.67653 9.11918 1.0001
94 1 5.51007 11.7138 5.47563
97 1 5.54044 10.2859 5.25334
87 1 3.11333 10.7168 3.43176
20 1 3.18504 11.8843 4.2963
95 1 5.89847 9.73487 4.04418
93 1 5.64775 9.60237 6.45837
100 1 5.39615 10.4731 7.59658
101 1 5.51693 9.71445 8.84227
106 1 4.93343 11.8978 7.96221
33 1 3.59975 11.9983 8.55921
98 1 3.50555 11.1841 9.68144
103 1 3.22428 11.7935 10.9441
99 1 3.27887 9.79207 9.59418
102 1 4.32834 9.07969 9.01661
114 1 8.60925 1.0636 0.341457
15 1 6.28686 1.03729 5.36838
19 1 6.14573 1.31933 3.9212
121 1 7.76238 0.614062 5.91285
128 1 8.88866 2.97665 3.70562
129 1 8.35478 0.18746 9.37563
130 1 8.26103 2.13424 11.4211
137 1 7.02759 0.504277 9.32774
134 1 6.96563 2.54662 10.8961
35 1 6.87822 2.8466 9.43909
147 1 8.12484 3.78741 2.81579
139 1 8.95702 4.71955 2.11283
141 1 6.86754 4.534 3.29409
150 1 8.14886 4.52859 5.47536
156 1 6.87198 4.6036 4.71775
151 1 8.27125 5.07366 6.80782
166 1 7.22697 4.60737 7.64401
23 1 6.11789 4.13615 6.99852
167 1 7.57641 4.01855 8.90824
165 1 8.33637 4.89564 9.7276
37 1 6.09022 3.28999 11.648
49 1 6.32647 6.66491 2.15676
140 1 7.99375 7.68454 0.383597
142 1 8.58072 7.38481 2.5869
145 1 6.96274 6.67636 0.681379
171 1 8.11027 8.45739 1.63405
144 1 7.31434 7.04926 3.2988
148 1 7.18411 7.1601 4.73754
154 1 8.35935 7.1502 5.53352
153 1 8.1698 6.55922 6.73473
162 1 8.58165 7.49694 7.74916
184 1 8.14193 8.93666 7.51019
188 1 7.99517 8.26872 11.0671
74 1 6.48352 6.90777 9.14608
160 1 7.81743 7.2395 9.89896
169 1 7.09657 9.53003 1.87342
174 1 7.97704 10.9841 3.56656
170 1 6.93637 10.1165 3.21665
177 1 8.34338 9.55504 6.12299
178 1 8.10362 11.1346 6.34415
180 1 7.89147 9.70405 8.60484
181 1 8.60636 10.9521 8.71045
185 1 8.91145 11.4014 7.40967
104 1 6.73251 9.58153 9.41521
110 1 6.49943 9.08283 10.8292
86 1 6.07477 10.1283 11.7812
115 1 10.3233 1.23323 2.44296
116 1 11.6482 0.993539 2.82226
112 1 9.70433 1.22206 1.2498
111 1 9.4857 1.66562 3.53701
126 1 10.9251 0.207048 4.75638
120 1 9.76984 1.11383 4.82804
123 1 9.07273 1.35593 5.95414
127 1 9.85358 0.871564 7.35898
189 1 11.3665 0.497339 7.24559
131 1 9.26943 1.27343 8.8753
135 1 9.92736 2.45712 9.72437
136 1 9.31994 2.91918 10.9834
105 1 11.8296 0.0101488 10.1355
119 1 10.0568 4.12402 1.1601
117 1 11.2913 4.10232 1.87838
157 1 11.3328 4.9189 4.17809
124 1 9.18021 3.70881 5.01453
146 1 11.3855 3.97031 3.30822
138 1 10.2186 5.74187 3.89366
161 1 10.2777 4.94223 8.31128
155 1 9.72347 4.77316 7.05922
133 1 11.4486 4.36918 8.8939
122 1 11.7791 3.7662 6.22739
125 1 10.4313 4.01175 6.05778
163 1 9.44619 5.61201 9.18789
113 1 9.86272 3.82653 11.855
132 1 11.2015 3.12199 9.46298
143 1 9.41135 6.11047 2.82495
168 1 11.139 7.60473 0.563201
149 1 9.69535 7.6531 5.41856
152 1 10.827 7.13612 6.19421
159 1 9.168 7.09184 8.9772
158 1 11.2905 7.02504 10.2119
164 1 10.4181 7.84684 9.49228
79 1 11.2299 6.74242 11.5198
172 1 10.0074 10.0659 4.56232
173 1 11.0291 10.7553 5.07982
175 1 9.42791 9.05859 5.30838
179 1 9.28849 10.6904 3.58403
182 1 11.2861 9.8532 8.11419
186 1 11.4828 11.032 7.29613
176 1 11.9937 10.5963 6.03074
187 1 10.2157 9.88624 10.5578
190 1 10.9942 11.1135 10.7664
183 1 10.5117 9.3033 9.2034
191 1 9.03 9.33326 11.045
ITEM: TIMESTEP
2000
ITEM: NUMBER OF ATOMS
191
ITEM: BOX BOUNDS pp pp pp
-1.1113834969392632e-01 1.2111138349693887e+01
-1.1113834969392632e-01 1.2111138349693887e+01
-1.1113834969392632e-01 1.2111138349693887e+01
ITEM: ATOMS id type x y z
4 1 1.75393 2.74574 1.42319
116 1 -0.0715426 0.889867 2.70888
12 1 1.27837 0.609062 4.83722
118 1 0.209795 0.355418 3.99848
31 1 2.72524 0.931116 8.67702
32 1 1.25698 0.737345 8.56454
11 1 0.553074 0.893435 7.26398
17 1 2.57802 2.16623 6.1285
13 1 1.28399 1.39179 6.10352
28 1 0.318008 0.929708 9.72956
38 1 2.6809 2.056 10.7399
30 1 1.43452 2.70926 11.0096
29 1 0.324188 2.3448 10.1531
7 1 0.528992 4.82 1.54495
6 1 1.04907 3.75296 0.727887
45 1 1.15374 5.76638 2.16429
14 1 2.28704 3.60871 6.65021
22 1 0.894817 3.96254 7.06753
63 1 0.636307 4.62223 8.37203
34 1 1.42574 4.00629 11.668
64 1 1.89132 5.04843 10.7684
66 1 1.86723 4.77578 9.32255
39 1 0.0648127 8.70879 0.998176
43 1 2.2614 8.0953 0.776969
42 1 1.20297 8.16549 1.70278
54 1 2.35999 6.54064 5.49766
50 1 2.0907 8.70541 3.85713
52 1 0.974049 6.26085 5.57088
40 1 1.05137 6.56087 3.23675
60 1 2.68429 7.8646 4.97715
53 1 0.323134 6.28168 4.34416
41 1 1.26873 7.88156 3.00918
108 1 1.44708 8.47747 8.66349
67 1 1.86286 7.09509 8.29476
71 1 0.700672 6.29202 8.01055
59 1 0.196476 6.59848 6.82825
77 1 2.1197 6.36932 11.3841
76 1 1.78597 7.67604 11.6153
75 1 1.26007 8.85717 11.0818
89 1 1.56889 10.7415 0.866335
84 1 1.28122 10.7128 2.20055
80 1 0.759796 9.6567 0.0055546
83 1 2.05808 10.1252 3.23274
21 1 1.884 11.5087 5.29112
96 1 1.09556 10.4745 5.63441
109 1 0.310383 9.0966 8.1451
107 1 1.87956 9.17576 9.80607
3 1 4.6558 0.426178 1.94702
1 1 3.77286 1.4067 1.69216
2 1 5.83567 0.746392 2.49074
5 1 3.01588 2.47798 2.15302
16 1 4.16276 0.0286667 5.53114
18 1 3.90247 1.47985 5.79234
26 1 5.92167 0.86199 8.76426
24 1 5.60935 2.34914 8.60862
10 1 5.04329 2.11673 6.23691
9 1 5.74392 2.82418 7.19826
25 1 3.22329 2.14693 9.38031
36 1 3.00949 0.941784 11.5333
48 1 4.20405 4.81707 0.655294
44 1 5.57433 5.242 2.72196
46 1 4.58726 4.50577 1.96768
8 1 3.86615 3.49386 2.62416
56 1 5.03475 5.64786 5.58983
51 1 3.50579 5.64935 5.88195
58 1 5.90589 4.51816 5.74945
70 1 3.21919 5.24745 8.59176
57 1 3.16972 4.67784 7.0166
78 1 4.91842 4.60153 11.7083
68 1 4.18822 4.37766 9.3265
69 1 4.75843 5.21842 10.3518
37 1 5.75601 3.5128 11.6287
27 1 4.26231 2.96672 9.15726
47 1 5.03403 7.81382 2.30109
82 1 4.73341 8.68932 1.33574
49 1 5.84025 6.65019 2.23188
90 1 3.32676 9.02938 0.939819
55 1 5.76726 7.11794 5.47419
92 1 5.01035 8.44545 3.63493
73 1 4.14156 7.71945 8.62257
62 1 5.46191 7.48922 8.03982
61 1 5.67012 8.00895 6.69916
65 1 3.18755 6.74266 8.5532
72 1 5.36381 6.44744 10.1309
81 1 5.51841 7.62482 10.9497
102 1 4.2521 9.02536 9.21045
88 1 3.81424 11.3187 2.02804
85 1 3.1153 10.6452 0.638306
91 1 5.76698 9.57699 1.03064
20 1 3.20661 11.5252 4.5599
94 1 5.55411 11.7898 5.40982
97 1 5.73092 10.3118 5.21265
87 1 3.25242 10.863 3.33293
95 1 5.75482 9.58643 4.04184
93 1 5.36791 9.67047 6.4658
100 1 5.32304 10.7737 7.76342
101 1 5.39848 9.8856 8.84371
106 1 4.9081 12.1035 8.18295
33 1 3.62622 12.024 8.97741
98 1 3.30328 11.1514 10.1058
103 1 3.26066 11.6154 11.4855
99 1 3.26484 9.64326 9.97089
86 1 5.95728 9.94943 11.8848
114 1 8.7587 1.91167 0.429378
15 1 6.72811 0.273882 4.97655
19 1 6.7314 0.648968 3.46078
121 1 8.05641 0.136757 5.53061
129 1 8.38898 0.430914 9.48441
130 1 8.132 2.59284 11.5009
137 1 6.90924 0.583086 9.75377
134 1 6.75151 2.74344 11.1439
147 1 7.77738 4.64518 2.37072
139 1 9.0115 5.43092 1.99629
141 1 6.6852 4.59499 3.28006
150 1 8.17864 3.73094 4.84748
156 1 6.88399 4.41625 4.71775
151 1 8.55968 5.34529 6.94389
166 1 7.51313 4.46803 7.67929
23 1 6.21379 4.12597 7.12148
167 1 7.58792 3.96776 8.99598
165 1 8.69138 4.39848 9.8338
35 1 6.65301 3.04372 9.48477
171 1 7.91054 8.47783 1.41856
140 1 7.58321 7.62838 0.220334
142 1 8.24182 7.61304 2.52797
145 1 6.5832 6.64587 0.658927
144 1 7.0137 7.16664 3.23648
148 1 6.98356 6.98715 4.74883
154 1 8.22583 7.08842 5.38201
153 1 8.38767 6.69445 6.65158
162 1 8.47293 7.56125 7.71198
184 1 8.36334 9.02276 7.626
188 1 7.83726 8.15665 11.086
160 1 7.59507 7.21741 9.79963
74 1 6.31925 6.8384 9.08904
110 1 6.52263 8.98481 10.8798
159 1 9.03275 7.04741 9.19749
169 1 7.02845 9.46538 1.73434
170 1 6.90369 9.93675 3.16211
174 1 8.02389 10.8143 3.46936
177 1 8.84517 9.75611 6.28107
178 1 8.69549 11.1685 6.27247
180 1 7.90683 9.85336 8.68386
181 1 8.62442 11.2624 8.75845
104 1 6.64107 9.64676 9.47099
191 1 8.971 9.35349 10.8501
115 1 10.8108 1.41564 2.1769
112 1 9.82432 1.33936 1.02107
111 1 10.1997 2.1238 3.36158
126 1 11.22 0.0648484 4.61105
120 1 10.1498 1.11871 4.57425
123 1 9.03684 1.1273 5.41702
127 1 10.179 0.636928 7.88554
189 1 11.5337 0.268449 7.41734
131 1 9.54966 1.38281 9.03508
135 1 10.1057 2.43589 9.86349
119 1 9.94447 4.72396 1.09283
117 1 11.2231 4.66995 1.70999
128 1 10.4213 3.409 3.82537
124 1 9.69787 3.72294 5.02102
146 1 11.0658 4.53183 3.29792
157 1 11.1817 5.83132 3.92826
161 1 10.4792 5.17196 8.51934
155 1 9.89105 4.76396 7.16811
122 1 11.9097 3.85934 6.32545
125 1 10.5413 4.06336 6.12539
133 1 11.5401 4.39139 9.00511
163 1 9.36679 5.51376 9.23593
136 1 9.26827 3.30552 10.7449
113 1 9.77043 4.28435 11.9944
132 1 11.4056 3.05047 9.61208
143 1 9.26329 6.60356 2.75997
168 1 11.0873 8.03562 0.814194
149 1 9.39715 7.65905 4.80782
138 1 10.0467 6.80674 3.8615
152 1 11.3277 7.60877 6.71845
158 1 11.2167 7.46716 10.4611
164 1 10.4329 7.88092 9.41306
79 1 10.7605 7.46469 11.7687
172 1 10.2034 10.1129 4.27859
173 1 11.1036 10.9326 4.82646
179 1 9.36571 10.817 3.43158
175 1 9.54966 9.07571 5.15488
176 1 11.9331 10.5927 5.81338
182 1 11.3726 9.84051 8.16435
186 1 11.528 10.9958 7.23524
185 1 9.40825 11.5957 7.51574
187 1 10.0903 9.94174 10.2435
190 1 10.7651 11.1883 10.4857
105 1 11.6975 12.0684 10.2388
183 1 10.5597 9.27817 9.17478
ITEM: TIMESTEP
3000
ITEM: NUMBER OF ATOMS
191
ITEM: BOX BOUNDS pp pp pp
-2.2303768650296379e-01 1.2223037686502932e+01
-2.2303768650296379e-01 1.2223037686502932e+01
-2.2303768650296379e-01 1.2223037686502932e+01
ITEM: ATOMS id type x y z
12 1 1.05891 0.482362 4.919
118 1 0.00554353 0.512272 3.94391
31 1 2.55063 0.792025 9.03959
32 1 1.07756 0.645343 8.82866
11 1 0.377087 0.608889 7.4987
17 1 2.33443 1.9025 6.44464
13 1 1.16183 1.11216 6.16132
28 1 0.291954 0.652793 9.97542
38 1 2.46284 1.89082 11.026
29 1 0.0518512 2.02499 10.3653
30 1 1.16526 2.54621 11.1558
7 1 0.130507 4.67188 1.34809
6 1 0.924903 3.87774 0.639284
45 1 0.750623 5.77967 2.06284
4 1 1.76041 3.09451 1.48652
14 1 2.05357 3.48306 6.66241
63 1 0.613095 4.98354 8.72413
22 1 0.723348 3.70984 6.47475
34 1 1.15431 3.92611 11.7152
64 1 1.62801 4.9805 10.8911
66 1 1.84222 4.92366 9.46156
39 1 0.19457 8.58287 0.797989
42 1 1.48835 8.15555 1.51244
43 1 2.63423 8.20113 0.62216
41 1 1.53561 7.68867 2.78776
54 1 2.4353 6.74091 5.3712
50 1 2.14891 8.62159 3.63919
52 1 0.983136 6.35034 5.49904
40 1 1.19497 6.35953 3.18034
60 1 2.72996 8.07039 4.85644
53 1 0.318647 6.15027 4.2799
108 1 1.28301 8.50147 8.69944
67 1 1.84373 7.1885 8.37489
109 1 0.233612 8.83505 7.76978
59 1 0.388306 6.72565 6.68628
71 1 0.775834 6.16175 7.88695
152 1 0.0112203 8.04489 6.77505
75 1 1.37412 8.74447 11.1599
76 1 2.20807 7.66809 11.7481
77 1 2.11646 6.23794 11.4038
107 1 1.80292 8.94855 9.88852
89 1 1.27043 10.6 0.635374
84 1 1.1996 10.4623 2.15028
80 1 0.628636 9.44306 -0.24801
83 1 2.13271 10.0248 3.15881
21 1 1.74514 11.679 4.94655
96 1 1.11488 10.6274 5.53357
3 1 4.15034 0.462479 1.86562
1 1 3.36654 1.3987 0.7976
2 1 5.28593 0.903038 2.76655
5 1 3.04239 2.6254 1.44212
16 1 4.06717 -0.0350266 5.29739
10 1 4.81173 1.78128 6.57497
24 1 5.83255 2.31014 8.73559
26 1 5.79077 0.770931 8.86663
9 1 5.67876 2.60602 7.28965
18 1 3.62054 1.18267 6.11141
25 1 3.16787 1.95132 9.6951
36 1 2.76697 0.859799 11.9515
27 1 4.37097 2.77952 9.30977
48 1 4.7076 4.69687 0.401291
44 1 5.79214 5.23973 2.34906
46 1 4.7481 4.44269 1.74098
8 1 4.00135 3.29793 2.14019
56 1 4.96078 5.88624 5.54844
58 1 5.87071 4.61166 5.69216
51 1 3.52752 5.68014 6.02538
70 1 3.2479 5.21493 8.59993
57 1 3.06582 4.73674 7.0852
78 1 5.31887 4.37355 11.7031
68 1 4.27134 4.36424 9.48032
69 1 5.19094 5.13463 10.5753
47 1 5.00392 8.00872 2.39305
82 1 4.78112 9.0037 1.33331
49 1 5.95858 6.75071 2.07888
92 1 5.14714 8.71451 3.54696
55 1 5.81027 7.13259 5.58218
73 1 4.2031 7.70936 8.56494
62 1 5.64365 7.44198 8.15592
61 1 5.79612 8.14055 6.82084
65 1 3.21333 6.75232 8.39124
102 1 4.14108 9.07918 9.08458
72 1 5.57664 6.50221 10.3656
81 1 5.32424 7.83045 11.0063
88 1 3.42072 11.7793 2.00585
85 1 3.02471 10.9805 0.377723
90 1 3.53605 9.33304 0.673126
91 1 5.96572 9.82299 0.836372
87 1 3.16642 11.0805 3.1627
94 1 5.39655 11.921 5.25758
97 1 5.75783 10.3787 5.20261
95 1 5.94603 9.84117 3.87423
20 1 3.15996 11.6723 4.53276
93 1 5.61575 9.66916 6.45494
100 1 5.23174 10.6411 7.64595
106 1 4.66908 12.0624 8.25996
101 1 5.23916 9.82011 8.65224
33 1 3.36625 12.1367 9.0803
98 1 3.1508 11.1541 10.1616
103 1 2.99982 11.8275 11.6164
99 1 3.02854 9.6555 9.73787
114 1 8.95303 2.29665 0.504113
15 1 6.59798 0.147033 4.77389
123 1 8.88158 0.800722 4.98835
121 1 7.85794 -0.0979153 5.33974
19 1 6.37092 0.871887 3.62168
129 1 8.36496 0.0574783 9.64471
137 1 6.91939 0.189653 9.72847
134 1 7.12302 2.73528 11.0544
147 1 8.11848 4.65455 2.31019
141 1 6.74244 4.61086 3.23547
150 1 8.14767 3.87536 5.02635
156 1 6.92886 4.32344 4.61434
151 1 8.41357 5.22649 7.05809
166 1 7.31803 4.44697 7.74877
23 1 6.3214 3.85716 6.88054
165 1 8.58924 4.82733 10.1197
136 1 9.07026 4.29929 11.3638
130 1 8.47516 3.01157 11.7577
37 1 5.92714 3.09851 11.7132
35 1 6.92838 2.99494 9.59496
167 1 7.56958 4.21711 9.14902
171 1 8.03666 8.5156 1.49313
140 1 7.75338 7.90856 0.236671
142 1 8.21642 7.5354 2.44432
145 1 6.8958 6.79021 0.634485
144 1 7.09261 7.03964 3.23105
148 1 6.91206 7.14134 4.64665
154 1 8.13152 7.17113 5.32563
153 1 8.26688 6.56648 6.67645
162 1 8.75566 7.58713 7.66092
184 1 8.32404 8.98857 7.62771
188 1 8.22664 8.21691 11.415
160 1 7.80275 7.48424 10.0185
74 1 6.45928 6.97061 9.17928
110 1 6.19469 9.15504 10.6612
169 1 7.17584 9.59788 1.66248
170 1 6.9866 10.2023 3.00364
174 1 7.7902 11.259 3.13478
179 1 8.88981 11.029 3.94906
177 1 8.42445 9.65934 6.35741
178 1 8.53743 11.2688 6.41058
180 1 7.72451 9.8223 8.6013
181 1 8.55437 11.107 8.73783
185 1 9.18727 11.6706 7.58596
104 1 6.43152 9.64962 9.40437
86 1 6.04666 9.93571 11.93
191 1 8.95662 9.38957 11.2511
115 1 10.9257 1.6102 2.2866
112 1 10.0496 1.75558 1.12419
116 1 12.0274 0.93015 2.66855
111 1 10.3193 2.09434 3.47151
126 1 11.1692 0.0628744 4.53429
120 1 10.0524 0.881362 4.33686
127 1 10.2504 0.154663 8.03341
131 1 9.5997 0.920509 8.99833
135 1 10.19 2.07599 9.48073
119 1 10.2965 4.88128 1.13266
117 1 11.2898 4.4478 1.87866
139 1 9.29029 5.31143 1.98532
128 1 10.2551 3.4415 3.86825
124 1 9.6068 3.65481 5.05081
146 1 11.05 4.41009 3.35489
157 1 11.2434 5.79961 4.01491
161 1 10.414 4.87557 8.69904
155 1 9.81515 4.69675 7.25673
125 1 10.5585 4.16619 6.12236
122 1 11.9611 3.79995 6.02505
133 1 11.56 4.26658 9.16016
163 1 9.38944 5.71462 9.36434
132 1 11.5195 2.80056 9.64712
113 1 9.97856 4.99605 12.2071
168 1 11.6117 7.78995 0.473463
143 1 9.36369 6.54433 2.65425
149 1 9.32486 7.72692 4.76381
138 1 10.1516 6.8474 3.79417
158 1 11.1123 7.3321 10.6154
164 1 10.462 7.84165 9.50211
79 1 11.2737 7.01962 11.8857
159 1 9.25925 7.19112 9.06539
172 1 9.96599 10.3146 4.51819
173 1 11.0295 11.1416 4.99475
175 1 9.35166 9.13719 5.30704
176 1 12.1692 10.7821 5.8869
182 1 11.6264 9.74826 8.2079
186 1 11.6764 10.8455 7.25213
189 1 11.568 12.238 7.6522
187 1 10.033 9.94658 10.5137
190 1 10.8395 11.1212 10.7173
183 1 10.5909 9.19906 9.27958
105 1 11.7606 12.1199 10.4655
ITEM: TIMESTEP
4000
ITEM: NUMBER OF ATOMS
191
ITEM: BOX BOUNDS pp pp pp
-1.4503018123602537e-01 1.2145030181235976e+01
-1.4503018123602537e-01 1.2145030181235976e+01
-1.4503018123602537e-01 1.2145030181235976e+01
ITEM: ATOMS id type x y z
4 1 1.86058 2.85511 1.42067
116 1 -0.223911 1.24605 2.75606
12 1 0.949478 0.643262 5.25663
118 1 0.0575836 0.830989 4.14854
31 1 2.59544 0.874569 8.94835
32 1 1.16254 0.652423 8.78091
11 1 0.282795 0.715276 7.59202
17 1 2.24361 2.06228 6.47857
13 1 0.924163 1.27473 6.43919
28 1 0.282394 0.753881 9.97021
38 1 2.60249 1.96422 11.0239
29 1 0.174188 2.18648 10.2645
30 1 1.34408 2.68924 11.019
7 1 0.319175 4.64968 1.47342
6 1 0.984737 3.71299 0.749609
45 1 1.1735 5.52538 2.23488
14 1 2.17919 3.51109 6.58197
63 1 0.502186 4.93195 8.73125
22 1 0.779213 3.79067 6.16538
34 1 1.22431 3.89571 11.6635
64 1 1.68413 5.01544 10.9226
66 1 1.75001 4.7645 9.41386
39 1 0.228407 8.39255 0.724896
42 1 1.55909 7.91023 1.27057
43 1 2.60721 8.13694 0.317217
41 1 1.70692 7.73194 2.65775
54 1 2.52032 6.55433 5.47884
50 1 2.17805 8.54289 3.66561
52 1 1.11037 6.19935 5.44623
40 1 1.15714 6.44883 3.16142
60 1 2.7642 7.75065 4.69959
53 1 0.321248 6.21692 4.29526
108 1 1.35696 8.42387 8.61968
67 1 1.87405 7.08625 8.53248
109 1 0.333842 8.80293 7.77397
59 1 0.571649 6.69513 6.62135
71 1 0.869085 6.16529 7.96207
152 1 0.123824 8.02245 6.68834
77 1 1.8187 6.4729 11.2329
76 1 2.1299 7.81091 11.4373
89 1 1.30661 10.4887 0.716864
84 1 1.06789 10.1971 2.12565
80 1 0.654292 9.5478 -0.186662
85 1 2.99966 10.7728 0.520669
83 1 1.99522 9.94222 3.14275
21 1 1.81702 11.8085 5.04052
96 1 1.14794 10.637 5.4929
176 1 -0.244925 10.6824 5.94113
107 1 1.72585 9.31963 9.69343
75 1 1.32889 9.06821 10.9677
3 1 4.22067 0.308374 1.79571
1 1 3.61355 1.30969 0.946787
2 1 5.52729 0.469916 2.26899
5 1 3.15974 2.46291 1.47605
16 1 3.99931 0.140913 5.1958
10 1 4.77904 2.22347 6.42219
24 1 5.67749 2.48321 8.73257
26 1 5.64382 0.945164 8.77043
18 1 3.66367 1.38365 6.14905
25 1 3.19754 1.98572 9.60338
36 1 3.19472 0.92598 11.8879
27 1 4.28968 2.9254 9.33144
48 1 4.77548 5.13917 0.480512
44 1 5.68945 5.5462 2.67641
46 1 4.92779 4.70058 1.88814
8 1 4.11749 3.40065 1.99173
56 1 5.0257 5.87374 5.72828
58 1 5.91361 4.69513 5.69663
70 1 3.05908 5.09862 8.48997
57 1 3.09424 4.59843 6.98554
9 1 5.59454 2.95566 7.35393
51 1 3.63988 5.71989 6.10485
78 1 5.2305 4.46989 11.5843
68 1 4.13877 4.41655 9.34714
69 1 5.12076 5.2523 10.3989
37 1 5.89346 3.21673 11.77
47 1 4.8788 8.00972 2.37406
82 1 4.63595 8.94486 1.27953
49 1 6.00656 6.9715 2.34336
92 1 4.83568 8.55111 3.7295
55 1 5.80433 7.1483 5.66119
73 1 4.19485 7.8013 8.59512
62 1 5.64431 7.69774 8.17819
61 1 5.72316 8.07587 6.76285
65 1 3.23013 6.73309 8.68308
72 1 5.76613 6.67434 10.3734
81 1 5.54848 7.86229 11.1434
88 1 3.49852 11.4964 2.0323
90 1 3.46662 9.13022 0.718898
91 1 5.80495 9.66678 0.980007
87 1 2.85771 11.1133 3.16428
94 1 5.35382 11.6183 5.10094
97 1 5.65104 10.2461 5.21621
20 1 2.96402 11.8253 4.32645
95 1 5.83651 9.61173 4.05797
93 1 5.52074 9.80563 6.55676
100 1 5.16609 10.712 7.76659
101 1 5.21841 9.99813 9.03005
106 1 4.7819 12.0903 8.26548
33 1 3.60544 12.1272 9.06874
98 1 3.38738 11.208 10.127
103 1 3.16452 11.6893 11.5532
99 1 3.01335 9.89551 9.59479
102 1 4.07369 9.14097 9.01572
114 1 8.91937 2.2853 0.222044
15 1 6.4939 0.00244891 4.68692
19 1 6.45061 0.456832 3.301
123 1 8.72999 0.707076 4.99061
137 1 6.97826 0.672244 9.38572
129 1 8.27674 0.171038 9.47438
134 1 6.92138 2.85163 11.028
147 1 7.97466 4.66377 2.51742
141 1 6.81602 4.75696 3.37538
150 1 8.12648 3.60203 5.17551
156 1 6.92678 4.20436 4.71637
151 1 8.48111 5.22544 7.18371
166 1 7.30044 4.62057 7.77292
23 1 6.19176 4.20952 7.00946
165 1 8.45092 4.78578 9.9206
136 1 8.66881 4.35304 11.1991
167 1 7.38234 4.25775 9.1227
35 1 6.66097 3.14896 9.63882
130 1 8.17549 3.14093 11.6059
171 1 8.01355 8.56965 1.52484
140 1 7.69894 7.78447 0.393581
145 1 6.69208 6.8249 0.999324
142 1 8.37102 7.73184 2.60398
144 1 7.09488 7.37673 3.31473
148 1 6.98901 7.25688 4.7891
154 1 8.32317 7.15181 5.48354
153 1 8.42623 6.66988 6.82811
162 1 8.63926 7.68224 7.84389
184 1 8.30978 9.05844 7.77495
188 1 8.20176 8.13177 11.2916
160 1 7.99592 7.50665 10.0014
74 1 6.67526 7.15809 9.33016
169 1 6.92204 9.41551 1.71108
174 1 8.12185 10.7462 3.22494
170 1 6.90727 10.0802 3.09285
121 1 7.85443 12.1383 5.35722
177 1 8.704 9.64299 6.32053
178 1 8.41833 11.0404 6.18176
180 1 7.61131 9.91375 8.74392
181 1 8.34222 11.1219 8.77302
185 1 8.94298 11.5233 7.44945
104 1 6.41138 9.76236 9.62999
86 1 6.11771 10.0161 12.0547
110 1 6.04548 9.18184 10.9332
115 1 10.7847 1.68556 2.23901
112 1 10.0036 1.86799 1.0179
111 1 10.1781 2.06894 3.53676
126 1 11.1219 0.123722 4.62004
120 1 9.90473 0.847791 4.32738
127 1 10.1194 0.145371 7.93247
189 1 11.3771 -0.0973531 7.49648
135 1 10.1691 1.95117 9.88671
131 1 9.58357 1.00794 9.15975
119 1 10.1024 4.84132 1.11969
117 1 11.3197 4.49183 1.91573
139 1 9.23057 5.33212 2.13926
128 1 10.1535 3.50413 3.92363
124 1 9.54443 3.79608 5.12829
146 1 11.049 4.52515 3.34286
157 1 11.2654 5.7637 4.03054
161 1 10.3457 4.81657 8.44745
155 1 9.71905 4.71275 7.19287
125 1 10.3736 3.96383 6.25304
122 1 11.7321 3.62149 5.93487
133 1 11.5693 4.24658 9.07448
163 1 9.44854 5.52461 9.30297
132 1 11.2813 2.86848 9.83047
113 1 9.80666 4.69266 12.0309
168 1 11.4404 7.54551 0.398423
143 1 9.51211 6.8069 2.6328
149 1 9.59107 7.66904 4.94188
138 1 10.2522 6.80776 3.88956
158 1 11.3691 6.83174 10.2554
164 1 10.6384 7.58973 9.29074
79 1 11.2378 6.83776 11.537
159 1 9.17938 7.14149 9.12413
183 1 10.8365 9.06651 9.14816
172 1 10.2681 10.1125 4.36533
173 1 11.2065 11.0195 4.92891
175 1 9.7179 9.12411 5.33657
179 1 9.44547 10.5048 3.37388
182 1 11.5682 9.66397 8.10766
186 1 11.5166 10.7893 7.24902
187 1 10.3915 9.75115 10.3961
190 1 10.8332 11.0648 10.6538
191 1 9.33783 9.09578 11.2292
105 1 11.9632 11.776 10.3435
ITEM: TIMESTEP
5000
ITEM: NUMBER OF ATOMS
191
ITEM: BOX BOUNDS pp pp pp
-5.6831722151142183e-02 1.2056831722151040e+01
-5.6831722151142183e-02 1.2056831722151040e+01
-5.6831722151142183e-02 1.2056831722151040e+01
ITEM: ATOMS id type x y z
4 1 1.82611 2.68934 1.67704
116 1 -0.0365442 1.01621 2.52933
12 1 1.36355 0.541253 4.73594
118 1 0.259488 0.583972 3.88379
31 1 2.66239 1.01353 8.70314
32 1 1.23563 0.844423 8.54141
11 1 0.578378 0.79126 7.26259
13 1 1.48386 1.22457 6.00415
17 1 2.6884 2.17993 5.99125
28 1 0.403206 0.918791 9.77584
38 1 2.66978 2.0731 10.8433
29 1 0.240105 2.19529 10.1902
30 1 1.40152 2.66662 10.9726
7 1 0.378616 4.58207 1.67075
6 1 1.06909 3.57397 0.982511
45 1 1.36399 5.5439 2.15149
14 1 2.27623 3.47738 6.47694
63 1 0.632105 4.96733 8.80226
22 1 0.856775 3.79812 6.23843
34 1 1.37108 3.91383 11.7509
64 1 1.95098 4.97675 11.043
66 1 1.96927 4.70389 9.48624
39 1 0.329331 8.22833 1.11563
42 1 1.55977 7.94604 1.60753
43 1 2.62415 8.17909 0.728375
41 1 1.87771 7.59186 2.87065
54 1 2.3836 6.69557 5.62871
50 1 2.27676 8.57377 3.72427
52 1 0.986174 6.3379 5.63378
40 1 1.25328 6.39361 3.2705
53 1 0.384103 6.14587 4.4042
60 1 2.77708 7.96319 4.97256
108 1 1.35779 8.37232 8.61412
67 1 1.85658 7.08228 8.39307
109 1 0.0720284 8.67754 7.90285
59 1 0.235068 6.54751 6.77669
71 1 0.88436 6.19142 8.01414
77 1 2.22808 6.23927 11.3688
76 1 2.27076 7.65775 11.6083
75 1 1.41102 8.78833 11.0064
89 1 1.40056 10.526 0.820469
84 1 1.15403 10.376 2.2092
80 1 0.765602 9.59759 -0.0128799
83 1 2.23995 9.90073 3.17899
21 1 2.03661 11.4443 4.89272
96 1 1.2279 10.6058 5.62728
107 1 1.76499 9.15139 9.77061
3 1 4.4102 0.529342 1.6099
1 1 3.71634 1.53671 0.963757
2 1 5.4116 0.966892 2.4639
5 1 3.2467 2.67902 1.78101
16 1 4.07522 0.199401 5.25484
18 1 3.85282 1.36532 5.89828
10 1 5.02479 1.98079 6.52451
26 1 5.73631 0.402629 9.01696
24 1 5.67299 2.76898 8.74102
9 1 5.78591 2.76657 7.36758
25 1 3.28034 2.17812 9.54602
36 1 3.06086 1.03096 11.8082
48 1 4.5103 4.85178 0.633501
44 1 5.48135 5.44229 2.71049
46 1 4.52669 4.70742 2.02473
8 1 3.90356 3.6329 2.53682
56 1 4.9999 5.86335 5.77969
58 1 5.8842 4.72868 5.78515
70 1 3.20228 5.07065 8.68695
57 1 2.95841 4.62373 7.05499
51 1 3.49687 5.72299 6.10757
78 1 5.28028 4.48181 11.6237
68 1 4.30498 4.50819 9.41126
69 1 5.07349 5.13483 10.395
37 1 6.02489 3.25559 11.7582
27 1 4.32495 2.9651 9.27299
47 1 4.8848 8.09093 2.42482
49 1 5.66635 6.83681 2.14136
82 1 4.7918 8.95473 1.24547
92 1 4.95644 8.79674 3.63768
55 1 5.70242 7.0761 5.52757
73 1 4.16514 7.64488 8.64645
62 1 5.51743 7.37436 8.06964
61 1 5.6498 8.03808 6.75134
65 1 3.12383 6.74423 8.49863
72 1 5.6261 6.592 10.311
81 1 5.4352 7.82851 10.898
102 1 4.01247 9.03343 9.04602
88 1 3.82537 11.3676 1.8329
90 1 3.54499 9.26788 0.660757
85 1 3.14312 10.7454 0.592739
87 1 3.38259 10.8953 3.18083
94 1 5.38271 11.7189 5.37116
97 1 5.70724 10.3497 5.35498
20 1 3.30814 11.4695 4.45767
93 1 5.47864 9.70174 6.47175
100 1 5.01863 10.4375 7.57335
101 1 5.12744 9.66743 8.64184
106 1 4.80943 11.8173 8.20263
33 1 3.47242 11.9784 8.73031
98 1 3.25082 11.1329 10.0116
103 1 3.12664 11.6801 11.4119
99 1 3.02915 9.78739 9.6883
15 1 6.58788 0.265768 4.79077
19 1 6.2945 0.867605 3.46191
123 1 8.90609 0.922457 4.93676
121 1 7.9808 -0.0647217 5.196
129 1 8.33401 0.30482 9.3587
137 1 6.9912 0.824046 9.48645
134 1 7.06668 2.9404 10.958
147 1 7.79433 4.81441 2.49402
139 1 8.96678 5.38291 2.17043
141 1 6.58485 4.77009 3.36036
150 1 7.98973 3.79396 5.14742
156 1 6.77074 4.36979 4.64718
151 1 8.53887 5.33682 7.06758
166 1 7.52061 4.47094 7.63064
23 1 6.36307 4.03576 7.01894
167 1 7.66039 4.17369 9.04209
165 1 8.49087 4.89789 9.92924
130 1 8.29113 3.01271 11.5299
35 1 6.876 3.08753 9.50262
136 1 8.9341 4.23556 11.1718
171 1 8.07644 8.46831 1.40273
140 1 7.55092 7.67761 0.376189
145 1 6.43503 6.90457 0.758405
142 1 8.17449 7.60434 2.62912
144 1 7.0238 7.21081 3.27365
148 1 6.80901 7.19594 4.67676
154 1 8.00713 7.19173 5.42245
153 1 8.13436 6.58107 6.71491
162 1 8.45776 7.61757 7.78138
184 1 8.18425 8.97084 7.61352
188 1 8.10497 8.07689 11.2748
160 1 7.84158 7.25451 9.95163
74 1 6.52265 6.81785 9.1148
159 1 9.11154 7.09901 9.05625
169 1 7.13146 9.60493 1.6986
91 1 6.01541 9.69796 0.894937
174 1 8.25024 10.5174 3.41081
170 1 6.98162 9.97765 3.09069
95 1 6.01914 9.72984 4.0723
181 1 8.31327 11.1856 8.65434
178 1 8.39087 11.014 6.13754
180 1 7.69786 9.84596 8.67326
177 1 8.64977 9.58046 6.36394
185 1 8.93917 11.5501 7.34289
104 1 6.37854 9.6396 9.36055
86 1 6.25514 9.97047 11.6947
191 1 9.0161 9.37218 11.1077
110 1 6.04773 9.07987 10.6158
115 1 10.8572 1.73776 2.12357
112 1 10.0722 1.76634 0.928307
114 1 9.22555 2.25014 0.0726982
111 1 10.2517 2.26825 3.39905
120 1 10.0945 1.23987 4.3945
126 1 11.1694 0.270138 4.61133
127 1 10.0463 0.438902 7.71099
189 1 11.4121 0.169794 7.41839
131 1 9.40468 1.13888 8.80222
135 1 10.2132 2.20277 9.38198
119 1 9.97469 4.92111 1.40934
117 1 11.1931 4.60695 2.0878
113 1 9.55528 4.88462 0.139074
128 1 10.0571 3.52773 3.87602
124 1 9.40344 3.64432 5.0638
146 1 10.8629 4.62767 3.42716
157 1 11.1482 6.01114 3.99734
161 1 10.3736 4.90533 8.47449
155 1 9.81511 4.7415 7.14984
125 1 10.2557 3.85606 6.16889
122 1 11.6659 3.61496 6.07467
163 1 9.48736 5.66633 9.24602
132 1 11.3461 3.02338 9.64185
133 1 11.5176 4.34822 8.99844
168 1 11.2971 7.49788 0.943854
143 1 9.21765 6.65098 2.75412
149 1 9.3494 7.58245 4.88249
138 1 10.0463 6.91226 3.9188
175 1 9.70041 8.98348 5.44997
152 1 11.6072 7.8249 6.83089
158 1 10.9765 7.1623 10.5613
164 1 10.3346 7.77818 9.56289
79 1 11 6.95952 11.8244
172 1 10.2673 10.0287 4.59653
173 1 11.1775 10.9725 4.9571
179 1 9.53046 10.3265 3.43471
176 1 12.0275 10.4873 6.11966
182 1 11.2483 9.61273 8.26387
186 1 11.5002 10.8262 7.33139
187 1 10.0952 10.0013 10.4007
190 1 10.936 11.0826 10.7189
183 1 10.4526 9.19632 9.38397
105 1 11.8611 11.974 10.4513
ITEM: TIMESTEP
6000
ITEM: NUMBER OF ATOMS
191
ITEM: BOX BOUNDS pp pp pp
-1.0686298645816905e-01 1.2106862986458085e+01
-1.0686298645816905e-01 1.2106862986458085e+01
-1.0686298645816905e-01 1.2106862986458085e+01
ITEM: ATOMS id type x y z
4 1 1.93847 2.613 1.45601
12 1 1.07766 0.757474 4.91084
118 1 0.0900969 0.772329 3.93955
17 1 2.52271 2.03822 6.38679
32 1 1.29902 0.759435 8.6088
11 1 0.362079 0.806849 7.41014
13 1 1.13747 1.43868 6.24184
31 1 2.83757 0.851638 8.84071
28 1 0.4949 0.791648 9.83112
38 1 2.60963 1.92418 10.8662
29 1 0.294174 2.20434 10.2715
30 1 1.4034 2.56103 11.01
7 1 0.430345 4.48004 1.72432
6 1 1.07831 3.61004 0.886612
45 1 1.27102 5.34121 2.44702
14 1 2.34487 3.47376 6.49838
63 1 0.58772 4.91982 8.76268