ITEM: TIMESTEP
1000
ITEM: NUMBER OF ATOMS
191
ITEM: BOX BOUNDS pp pp pp
0.0000000000000000e+00 1.2000000000000000e+01
0.0000000000000000e+00 1.2000000000000000e+01
0.0000000000000000e+00 1.2000000000000000e+01
ITEM: ATOMS id type x y z
12 1 1.20509 0.848646 4.8824
1 1 2.45416 2.21262 3.44646
118 1 0.0568909 0.931156 4.21542
31 1 2.7963 1.20012 8.59879
32 1 1.33362 1.11411 8.47168
11 1 0.524598 1.20419 7.34151
17 1 2.71238 2.40746 6.16634
13 1 1.38231 1.67759 6.10224
28 1 0.600435 1.06936 9.68613
29 1 0.380463 2.49177 10.0643
30 1 1.54051 2.88833 10.6729
38 1 2.76966 2.1392 10.5977
4 1 2.18611 3.42645 1.49308
6 1 1.37529 4.1638 0.681185
7 1 0.316389 4.7799 1.23673
5 1 2.72351 3.38718 2.80547
53 1 0.358511 5.83537 4.1516
14 1 2.48962 3.77126 6.47623
22 1 1.04066 4.12647 6.92577
63 1 0.861504 4.89394 8.19573
34 1 1.60511 4.1806 11.3394
64 1 1.84804 5.17285 10.4568
66 1 1.97643 4.87993 9.13738
39 1 0.181589 8.50532 0.712513
43 1 2.65505 8.15867 0.868042
42 1 1.41328 7.99508 1.5577
45 1 0.410238 6.0196 1.6437
40 1 0.607622 6.50916 2.98891
41 1 1.37971 7.70322 2.91852
54 1 2.3679 6.52629 5.21292
50 1 2.14686 8.46843 3.69532
52 1 1.04645 6.21113 5.25484
60 1 2.43505 7.90596 4.88676
59 1 0.319578 6.54721 6.41356
67 1 1.82448 7.31926 8.10585
71 1 0.824954 6.39916 7.65354
108 1 1.50378 8.72625 8.5489
75 1 1.63839 8.73584 10.9
76 1 2.39605 7.75422 11.4558
77 1 2.36185 6.3648 11.1126
89 1 1.68557 10.4378 0.778156
84 1 1.26087 10.293 2.26055
96 1 1.39937 10.5244 5.80047
21 1 1.92503 11.6793 5.0829
83 1 1.97272 9.86486 3.45811
109 1 0.460584 9.13924 7.92927
107 1 1.96788 9.23301 9.68906
80 1 0.964113 9.47731 11.8748
3 1 3.46182 1.23958 3.5408
16 1 4.12741 0.164967 5.50129
2 1 4.94593 1.47411 3.18049
9 1 5.79569 2.82726 7.153
24 1 5.70492 2.43076 8.65892
26 1 5.83625 0.933983 8.58776
10 1 5.33926 2.06308 6.16372
18 1 3.95423 1.52412 6.0336
25 1 3.47206 2.22466 9.36298
36 1 3.1563 1.05003 11.3995
48 1 4.33373 4.65548 0.709691
44 1 5.99016 5.22315 2.44868
46 1 4.83482 4.57961 2.03733
8 1 3.91788 4.06314 2.96916
58 1 5.89245 4.77236 5.62939
56 1 5.05263 5.94244 5.47293
51 1 3.61934 5.79543 5.77172
70 1 3.40603 5.25056 8.37877
57 1 3.29911 4.88631 6.83742
78 1 5.12797 4.29346 11.5245
68 1 4.40579 4.42649 9.42396
69 1 5.059 5.21573 10.3426
27 1 4.47806 3.0505 9.22505
47 1 5.19546 7.94796 2.43487
82 1 4.90455 8.78538 1.39948
92 1 5.0144 8.61295 3.70179
55 1 5.95341 7.18716 5.53858
73 1 4.19161 7.74413 8.55678
62 1 5.53684 7.49362 7.95057
65 1 3.19209 6.8109 8.4114
61 1 5.63671 8.06901 6.60218
72 1 5.55993 6.5066 10.3029
81 1 5.54413 7.76087 11.0694
88 1 3.49987 11.0428 2.1632
85 1 3.16455 10.4098 1.00517
91 1 5.91697 9.71594 1.04399
90 1 3.67653 9.11918 1.0001
94 1 5.51007 11.7138 5.47563
97 1 5.54044 10.2859 5.25334
87 1 3.11333 10.7168 3.43176
20 1 3.18504 11.8843 4.2963
95 1 5.89847 9.73487 4.04418
93 1 5.64775 9.60237 6.45837
100 1 5.39615 10.4731 7.59658
101 1 5.51693 9.71445 8.84227
106 1 4.93343 11.8978 7.96221
33 1 3.59975 11.9983 8.55921
98 1 3.50555 11.1841 9.68144
103 1 3.22428 11.7935 10.9441
99 1 3.27887 9.79207 9.59418
102 1 4.32834 9.07969 9.01661
114 1 8.60925 1.0636 0.341457
15 1 6.28686 1.03729 5.36838
19 1 6.14573 1.31933 3.9212
121 1 7.76238 0.614062 5.91285
128 1 8.88866 2.97665 3.70562
129 1 8.35478 0.18746 9.37563
130 1 8.26103 2.13424 11.4211
137 1 7.02759 0.504277 9.32774
134 1 6.96563 2.54662 10.8961
35 1 6.87822 2.8466 9.43909
147 1 8.12484 3.78741 2.81579
139 1 8.95702 4.71955 2.11283
141 1 6.86754 4.534 3.29409
150 1 8.14886 4.52859 5.47536
156 1 6.87198 4.6036 4.71775
151 1 8.27125 5.07366 6.80782
166 1 7.22697 4.60737 7.64401
23 1 6.11789 4.13615 6.99852
167 1 7.57641 4.01855 8.90824
165 1 8.33637 4.89564 9.7276
37 1 6.09022 3.28999 11.648
49 1 6.32647 6.66491 2.15676
140 1 7.99375 7.68454 0.383597
142 1 8.58072 7.38481 2.5869
145 1 6.96274 6.67636 0.681379
171 1 8.11027 8.45739 1.63405
144 1 7.31434 7.04926 3.2988
148 1 7.18411 7.1601 4.73754
154 1 8.35935 7.1502 5.53352
153 1 8.1698 6.55922 6.73473
162 1 8.58165 7.49694 7.74916
184 1 8.14193 8.93666 7.51019
188 1 7.99517 8.26872 11.0671
74 1 6.48352 6.90777 9.14608
160 1 7.81743 7.2395 9.89896
169 1 7.09657 9.53003 1.87342
174 1 7.97704 10.9841 3.56656
170 1 6.93637 10.1165 3.21665
177 1 8.34338 9.55504 6.12299
178 1 8.10362 11.1346 6.34415
180 1 7.89147 9.70405 8.60484
181 1 8.60636 10.9521 8.71045
185 1 8.91145 11.4014 7.40967
104 1 6.73251 9.58153 9.41521
110 1 6.49943 9.08283 10.8292
86 1 6.07477 10.1283 11.7812
115 1 10.3233 1.23323 2.44296
116 1 11.6482 0.993539 2.82226
112 1 9.70433 1.22206 1.2498
111 1 9.4857 1.66562 3.53701
126 1 10.9251 0.207048 4.75638
120 1 9.76984 1.11383 4.82804
123 1 9.07273 1.35593 5.95414
127 1 9.85358 0.871564 7.35898
189 1 11.3665 0.497339 7.24559
131 1 9.26943 1.27343 8.8753
135 1 9.92736 2.45712 9.72437
136 1 9.31994 2.91918 10.9834
105 1 11.8296 0.0101488 10.1355
119 1 10.0568 4.12402 1.1601
117 1 11.2913 4.10232 1.87838
157 1 11.3328 4.9189 4.17809
124 1 9.18021 3.70881 5.01453
146 1 11.3855 3.97031 3.30822
138 1 10.2186 5.74187 3.89366
161 1 10.2777 4.94223 8.31128
155 1 9.72347 4.77316 7.05922
133 1 11.4486 4.36918 8.8939
122 1 11.7791 3.7662 6.22739
125 1 10.4313 4.01175 6.05778
163 1 9.44619 5.61201 9.18789
113 1 9.86272 3.82653 11.855
132 1 11.2015 3.12199 9.46298
143 1 9.41135 6.11047 2.82495
168 1 11.139 7.60473 0.563201
149 1 9.69535 7.6531 5.41856
152 1 10.827 7.13612 6.19421
159 1 9.168 7.09184 8.9772
158 1 11.2905 7.02504 10.2119
164 1 10.4181 7.84684 9.49228
79 1 11.2299 6.74242 11.5198
172 1 10.0074 10.0659 4.56232
173 1 11.0291 10.7553 5.07982
175 1 9.42791 9.05859 5.30838
179 1 9.28849 10.6904 3.58403
182 1 11.2861 9.8532 8.11419
186 1 11.4828 11.032 7.29613
176 1 11.9937 10.5963 6.03074
187 1 10.2157 9.88624 10.5578
190 1 10.9942 11.1135 10.7664
183 1 10.5117 9.3033 9.2034
191 1 9.03 9.33326 11.045
ITEM: TIMESTEP
2000
ITEM: NUMBER OF ATOMS
191
ITEM: BOX BOUNDS pp pp pp
-1.1209871549985148e-01 1.2112098715499810e+01
-1.1209871549985148e-01 1.2112098715499810e+01
-1.1209871549985148e-01 1.2112098715499810e+01
ITEM: ATOMS id type x y z
4 1 1.74095 2.89684 1.46595
5 1 2.8669 2.74137 2.33597
12 1 1.20949 0.637276 4.73105
118 1 0.202875 0.291028 3.7796
13 1 1.26655 1.45049 6.01357
31 1 2.67519 0.961665 8.68279
32 1 1.17693 0.769629 8.53509
11 1 0.499569 0.77888 7.19996
17 1 2.49355 2.15147 6.03079
28 1 0.272893 0.935718 9.58712
29 1 0.264054 2.34444 10.1748
30 1 1.39013 2.64113 10.9907
38 1 2.63253 2.01964 10.7397
7 1 0.401886 4.8834 1.38102
6 1 1.13656 3.90074 0.704015
45 1 0.993278 5.86526 2.00763
14 1 2.26035 3.55199 6.47561
22 1 0.906969 3.84972 7.02057
63 1 0.744282 4.67413 8.33955
34 1 1.39977 3.91416 11.578
64 1 1.85244 5.09137 10.6194
66 1 1.90771 4.72297 9.15638
39 1 0.230387 8.71919 0.90685
43 1 2.45215 8.17458 0.660587
42 1 1.36506 8.16038 1.67059
54 1 2.36899 6.66729 5.63491
50 1 2.28356 8.7079 3.83329
52 1 0.918189 6.41856 5.60415
40 1 0.954653 6.58762 3.11069
60 1 2.66394 7.9243 5.04336
53 1 0.376059 6.14019 4.28186
41 1 1.57805 7.8006 2.98347
108 1 1.42445 8.50717 8.54339
67 1 1.71671 7.05989 8.15773
71 1 0.603242 6.26314 7.85977
59 1 -0.115829 6.56748 6.68911
109 1 0.143917 8.84534 8.05093
77 1 1.93483 6.2929 11.2474
76 1 1.86924 7.7198 11.7181
75 1 1.23517 8.92406 11.0233
89 1 1.44469 10.6822 0.750768
84 1 1.42646 10.5814 2.20921
80 1 0.732595 9.67346 0.00474604
83 1 2.29848 9.97994 3.29393
21 1 1.95103 11.6543 5.06935
96 1 1.30523 10.5586 5.71562
176 1 -0.153883 10.6008 5.91278
107 1 1.8298 9.19859 9.77318
3 1 5.12058 1.22248 1.98121
1 1 3.88403 1.81021 2.27854
16 1 4.18253 0.0490697 5.41883
18 1 3.83392 1.48379 5.79936
10 1 5.07451 2.01098 6.20833
24 1 5.62899 2.30929 8.65972
9 1 5.59948 2.86514 7.22374
26 1 5.76075 0.858552 8.89628
25 1 3.15528 2.10501 9.42685
36 1 2.93028 0.889862 11.6357
48 1 4.24699 4.98588 0.656438
44 1 5.54047 5.20046 2.75573
46 1 4.41213 4.76035 2.05462
8 1 3.41517 4.03147 2.75305
56 1 5.0124 5.71122 5.62716
58 1 5.87264 4.48922 5.68263
70 1 3.13297 5.14444 8.50981
57 1 3.12757 4.73268 6.96121
51 1 3.55052 5.88188 5.99241
78 1 4.86174 4.65581 11.6159
68 1 4.21611 4.48079 9.31088
69 1 4.78414 5.2612 10.3745
37 1 5.70852 3.49093 11.6156
27 1 4.24536 3.04446 9.2239
47 1 5.09037 7.76052 2.38409
82 1 4.71068 8.6869 1.36626
92 1 5.06667 8.29744 3.69777
55 1 5.81605 7.0648 5.59705
73 1 4.1043 7.7391 8.60906
62 1 5.49663 7.50177 8.01859
61 1 5.71275 7.97206 6.77703
65 1 3.11771 6.72197 8.38703
72 1 5.36202 6.41155 10.0945
81 1 5.45542 7.64276 10.9712
102 1 4.28018 9.05199 9.13193
88 1 3.52299 11.42 1.98281
85 1 3.12163 10.741 0.470276
91 1 5.72157 9.57781 1.09463
90 1 3.40187 9.1468 0.906162
97 1 5.53883 10.3235 5.27755
94 1 5.58311 11.7522 5.38243
20 1 3.28592 11.646 4.62345
87 1 3.3575 11.0326 3.35687
95 1 5.73438 9.58122 4.06612
93 1 5.44441 9.64343 6.46672
100 1 5.27601 10.6815 7.89616
101 1 5.41062 9.86141 8.94261
106 1 4.84964 12.1016 8.31276
33 1 3.52754 12.0801 9.06652
98 1 3.3021 11.1271 10.1115
103 1 3.22233 11.7072 11.4757
99 1 3.24862 9.684 9.93609
86 1 5.89422 10.0866 11.9725
114 1 8.72561 1.86883 0.425932
2 1 6.26074 1.24779 2.70991
15 1 6.84424 0.0948508 4.96839
19 1 6.91712 0.653634 3.66503
121 1 8.19072 -0.0587483 5.69818
129 1 8.24698 0.464027 9.54177
130 1 8.14127 2.48576 11.5036
137 1 6.79392 0.528205 9.98722
134 1 6.7873 2.78388 11.0313
147 1 7.84143 4.64426 2.38395
141 1 6.63643 4.53201 3.25715
150 1 8.27435 3.60357 4.98063
156 1 6.92643 4.23763 4.72442
151 1 8.48559 5.19839 7.03107
166 1 7.43943 4.40632 7.66638
23 1 6.19991 4.07731 7.04347
167 1 7.48867 4.04219 9.01973
165 1 8.65122 4.31885 9.86481
35 1 6.55455 3.12758 9.53622
171 1 7.97297 8.49099 1.5469
140 1 7.64163 7.74114 0.335529
142 1 8.30064 7.64627 2.61771
145 1 6.70593 6.59836 0.763445
49 1 6.02959 6.62394 2.23314
144 1 7.18334 7.09579 3.29707
148 1 7.09802 6.94697 4.81184
154 1 8.41479 7.00897 5.50097
153 1 8.32835 6.6005 6.77336
162 1 8.55646 7.52971 7.73828
184 1 8.34712 8.99446 7.69483
159 1 9.01718 7.0597 9.1229
188 1 7.85025 8.35404 11.1537
160 1 7.55608 7.27554 9.77561
74 1 6.26928 6.88019 9.06821
169 1 6.9344 9.46448 1.84855
174 1 8.07598 10.7392 3.48942
170 1 6.8695 10.0036 3.23138
177 1 8.87771 9.62267 6.39911
178 1 8.77988 11.0133 6.38686
180 1 7.9309 9.92306 8.73413
181 1 8.50123 11.2896 8.81047
104 1 6.6569 9.70196 9.55615
191 1 8.97939 9.45497 10.9577
110 1 6.50702 8.98742 10.8902
115 1 10.8023 1.46049 2.11558
112 1 9.83095 1.3667 1.01399
116 1 12.1265 0.945013 2.51701
111 1 10.1612 2.07834 3.25247
120 1 10.1688 0.961294 4.42597
123 1 9.12966 0.971929 5.35904
126 1 11.1703 0.0309172 4.48292
127 1 10.1685 0.638498 7.82731
189 1 11.4362 0.12916 7.35286
135 1 10.0381 2.46766 9.81266
105 1 11.5458 -0.0966987 10.1554
131 1 9.40313 1.35403 9.12792
119 1 10.0485 4.66221 1.06289
117 1 11.3052 4.52541 1.66676
139 1 9.13356 5.2907 1.95809
146 1 11.1019 4.38559 3.15434
124 1 9.75535 3.66912 4.97526
128 1 10.4877 3.36345 3.76888
157 1 11.291 5.686 3.89052
161 1 10.4639 5.14755 8.45043
155 1 9.92125 4.78096 7.10642
125 1 10.5348 4.03756 6.18463
122 1 11.9228 3.74978 6.37124
133 1 11.5417 4.39823 8.94946
163 1 9.41327 5.48599 9.29144
136 1 9.21153 3.27791 10.7556
113 1 9.76147 4.28465 11.9779
132 1 11.3866 3.01062 9.63808
143 1 9.27241 6.62034 2.73408
168 1 11.3287 7.88633 0.799286
149 1 9.7934 7.44895 5.09335
138 1 10.213 6.70068 3.83133
175 1 9.71586 9.03631 5.22757
152 1 10.9041 7.25547 6.16342
158 1 11.0077 7.52393 10.3578
164 1 10.2617 7.88712 9.25862
79 1 10.6404 7.48793 11.7669
172 1 10.2966 9.98622 4.53008
173 1 11.2153 10.9436 4.75799
179 1 9.37 10.4967 3.62366
182 1 11.3482 9.81511 8.08738
186 1 11.5854 10.9042 7.29324
185 1 9.3645 11.5463 7.62061
187 1 10.1124 9.93622 10.2254
190 1 10.6512 11.2077 10.4806
183 1 10.4393 9.34127 9.01713
ITEM: TIMESTEP
3000
ITEM: NUMBER OF ATOMS
191
ITEM: BOX BOUNDS pp pp pp
-2.1426613408672243e-01 1.2214266134086657e+01
-2.1426613408672243e-01 1.2214266134086657e+01
-2.1426613408672243e-01 1.2214266134086657e+01
ITEM: ATOMS id type x y z
12 1 1.05647 0.852992 4.88024
118 1 -0.134976 0.758809 4.01378
31 1 2.67795 0.698491 8.9819
32 1 1.32664 0.946977 8.53638
11 1 0.538826 0.877711 7.28864
17 1 2.54942 2.22582 6.29084
13 1 1.33778 1.37661 6.21831
28 1 0.473931 0.929633 9.77208
29 1 0.152605 2.17557 10.228
30 1 1.12945 2.61824 11.1234
38 1 2.38031 1.93209 11.0839
105 1 0.0405631 -0.145318 10.4724
4 1 1.28484 3.26094 1.74548
6 1 0.860974 4.06889 0.70244
5 1 2.54765 3.4495 2.24589
7 1 -0.173783 5.03285 1.08107
14 1 2.26018 3.63831 6.37202
63 1 0.431536 5.03766 8.82459
22 1 0.722433 3.80464 6.14437
34 1 1.18596 3.91511 11.7239
64 1 1.87127 4.8542 10.9248
66 1 1.83729 4.74437 9.3367
42 1 1.79228 8.17149 1.24806
41 1 1.5436 7.85499 2.56545
39 1 0.654489 8.40676 0.460529
45 1 -0.056274 6.33149 1.34603
40 1 0.471294 6.81626 2.72662
54 1 2.24065 6.75439 5.43206
50 1 1.99888 8.71118 3.52096
60 1 2.32317 8.06511 4.8444
52 1 0.808851 6.39614 5.41567
53 1 0.0322364 6.22931 4.11242
108 1 1.68055 8.57848 8.44035
67 1 1.72588 7.1952 8.3182
71 1 0.562528 6.29479 8.00892
59 1 -0.0176975 6.45916 6.52875
75 1 1.61907 8.696 10.9156
76 1 2.28539 7.554 11.5808
77 1 2.32201 6.20791 11.2576
89 1 1.58686 10.4269 0.422315
84 1 1.1788 10.676 1.73284
83 1 1.90782 10.3222 2.96505
21 1 1.79682 12.1025 4.85398
96 1 1.19949 10.8799 5.21741
176 1 -0.121883 10.7845 5.6566
109 1 0.706716 9.09527 7.66403
80 1 1.03797 9.4701 11.9926
107 1 1.94009 9.1769 9.71665
3 1 4.49942 1.69297 2.71642
1 1 3.31342 2.2831 2.50253
16 1 3.9963 0.14768 5.16768
18 1 3.76453 1.55713 5.85402
2 1 5.67138 1.12255 3.07776
26 1 5.79491 0.618382 8.67469
24 1 5.45536 2.10295 8.57614
27 1 4.13567 2.6183 9.07947
10 1 4.83838 2.34908 6.20897
25 1 3.10826 1.85941 9.82598
36 1 2.86564 0.797651 11.9625
48 1 4.43015 5.1147 0.217316
44 1 5.32774 5.58934 2.74526
46 1 4.41785 5.12598 1.75242
8 1 3.16782 4.68386 2.19036
51 1 3.31537 5.93806 5.9656
58 1 5.8019 4.74767 5.52999
70 1 2.95007 5.05211 8.3887
57 1 2.86119 4.91508 6.93823
9 1 5.5619 3.09803 7.1445
68 1 4.08074 4.22495 9.08141
78 1 4.61998 3.91776 11.6205
69 1 4.6532 4.70926 10.4123
72 1 5.25421 6.06286 10.7235
37 1 5.60424 2.9971 11.9408
47 1 5.03179 8.23342 2.47537
43 1 2.89726 8.21255 0.306607
49 1 5.5755 7.01111 2.79226
56 1 4.71045 6.02339 5.59902
92 1 4.80259 8.98723 3.67615
55 1 5.71237 7.23911 5.69757
73 1 4.08931 7.66687 8.80444
62 1 5.41593 7.29368 8.56083
61 1 5.65628 8.07468 6.88063
65 1 3.05231 6.70193 8.60821
102 1 4.31911 8.97378 9.40031
81 1 5.39353 6.14592 12.1107
88 1 3.58815 11.3567 1.72164
90 1 3.78672 9.33961 0.391735
85 1 3.31449 10.7071 0.274703
82 1 4.93617 9.07669 1.13572
97 1 5.51021 10.338 5.39565
94 1 5.1679 11.8003 5.28571
20 1 3.03048 11.971 4.29246
87 1 3.06149 11.4257 3.03577
95 1 5.82995 9.80589 4.14386
93 1 5.7185 9.79952 6.69876
100 1 5.36998 10.6684 7.97872
106 1 4.88903 12.0247 8.52856
101 1 5.49944 9.72383 9.06927
98 1 3.41357 11.1349 10.4069
99 1 3.28932 9.70474 9.90319
103 1 3.25824 11.7516 11.6834
33 1 3.65271 12.0273 9.37576
114 1 8.90544 1.38204 0.125457
15 1 6.52468 -0.0284334 5.08988
19 1 6.58492 0.748205 3.91394
123 1 8.97077 0.68261 5.31834
129 1 8.42554 -0.0365204 9.49773
130 1 8.14722 2.09863 11.548
137 1 7.05794 0.425483 9.29924
134 1 6.7663 2.38281 11.1314
35 1 6.6066 2.73464 9.57925
147 1 7.56587 4.67976 2.06642
139 1 8.89861 5.18822 1.77973
141 1 6.55447 4.95651 3.02294
150 1 8.31247 4.10206 4.93161
156 1 6.98214 4.49143 4.37699
151 1 8.48106 5.28895 7.26765
166 1 7.30414 4.53543 7.83094
23 1 6.2674 4.20849 6.94165
167 1 7.41847 3.79933 9.05622
165 1 8.40941 4.26096 9.88427
171 1 7.76377 8.26249 1.46503
140 1 7.59332 7.62195 0.187476
142 1 7.96734 7.30837 2.66674
145 1 6.66981 6.53311 0.234613
144 1 6.8448 7.04432 3.42576
148 1 6.94794 7.07843 4.85676
154 1 8.23115 7.22808 5.63869
153 1 8.39925 6.65788 6.9642
162 1 8.66069 7.47015 8.01041
184 1 8.64162 8.91156 7.78882
188 1 7.62632 8.15589 11.1919
160 1 7.4697 7.11084 10.0986
74 1 6.1403 6.5592 9.80804
159 1 8.61114 6.76163 9.33315
169 1 7.17631 9.46594 1.74145
91 1 6.16709 9.79284 0.86155
174 1 7.98714 10.5657 3.67193
170 1 6.88613 9.98743 3.21915
121 1 8.06672 12.1004 5.65894
181 1 8.63633 11.2687 8.72508
178 1 8.72841 11.0724 6.49878
180 1 8.11827 9.95594 8.80695
177 1 8.8469 9.6544 6.37649
104 1 6.91599 9.63017 9.51999
110 1 7.08729 9.44456 10.9123
86 1 6.70591 10.2481 11.9306
115 1 10.6375 1.46628 2.20969
112 1 9.90698 1.2684 1.04599
116 1 12.036 1.1327 2.63671
111 1 10.1746 2.00164 3.54441
120 1 10.0297 0.952664 4.48513
126 1 11.1014 0.0620819 4.4163
127 1 10.4259 0.102635 8.0468
189 1 11.7127 0.0203612 7.49499
135 1 10.1111 2.35419 9.7746
131 1 9.77886 0.997657 9.22834
119 1 9.92084 4.57629 1.06874
117 1 11.1705 4.41511 1.7478
113 1 9.88366 3.90847 -0.376522
146 1 10.913 4.36492 3.20476
124 1 9.7531 3.7992 5.12837
128 1 10.384 3.34562 3.93561
157 1 11.0948 5.56591 4.04929
161 1 10.3712 5.16496 8.67536
155 1 9.87778 4.87524 7.34807
122 1 11.8605 3.74401 6.17279
125 1 10.5744 4.19337 6.22262
136 1 9.16158 3.1781 10.8877
163 1 9.32389 5.54879 9.52022
132 1 11.347 2.98275 9.61704
133 1 11.502 4.45639 8.99838
168 1 12.0284 7.45128 0.482138
143 1 9.08678 6.54065 2.60758
149 1 9.92255 7.4487 5.33552
138 1 10.0001 6.44187 4.00393
175 1 9.87391 9.07177 5.4128
152 1 11.0866 6.84128 6.38349
164 1 11.4547 7.89247 9.22991
158 1 11.2464 7.15924 10.3723
79 1 11.0791 7.11084 11.6857
172 1 10.2595 10.1934 4.53062
173 1 11.2555 11.0831 4.81377
179 1 9.31791 10.5658 3.55629
182 1 11.9503 9.78366 7.88783
186 1 11.9335 10.955 7.07853
185 1 9.4398 11.528 7.61957
183 1 11.2779 9.26918 9.0055
187 1 10.8475 10.0674 10.1305
190 1 11.7618 11.2349 10.4786
191 1 9.83443 9.64813 11.1038
ITEM: TIMESTEP
4000
ITEM: NUMBER OF ATOMS
191
ITEM: BOX BOUNDS pp pp pp
-1.7254458963763367e-01 1.2172544589637569e+01
-1.7254458963763367e-01 1.2172544589637569e+01
-1.7254458963763367e-01 1.2172544589637569e+01
ITEM: ATOMS id type x y z
12 1 0.995152 0.615472 4.71766
118 1 -0.187327 0.519692 3.61788
11 1 0.513648 0.818448 7.23807
32 1 1.36505 0.817247 8.39085
31 1 2.90164 0.862612 8.74243
17 1 2.32219 2.07894 6.03951
13 1 1.15785 1.23345 5.93529
28 1 0.488107 1.2149 9.5416
29 1 0.307 2.48047 9.94038
30 1 1.31588 2.75107 10.8358
38 1 2.48291 1.96031 10.7652
36 1 2.77888 0.827125 11.563
105 1 0.020083 0.213038 10.3918
7 1 -0.118748 4.77932 1.13411
6 1 0.91646 3.93318 0.655021
5 1 2.79443 3.06981 1.98807
4 1 1.51338 2.91499 1.34431
14 1 2.1155 3.47458 6.48325
63 1 0.39042 5.23119 8.50631
22 1 0.60274 3.78122 6.32916
70 1 2.8894 5.14031 8.46214
34 1 1.27188 4.05863 11.5419
64 1 1.41363 5.21798 10.6938
66 1 1.50775 4.933 9.2139
42 1 1.93383 7.81002 1.41137
40 1 0.963725 6.45347 2.82457
39 1 0.503441 8.29629 0.800502
41 1 1.89444 7.60954 2.78854
45 1 0.174753 6.08894 1.56046
43 1 2.93882 8.06264 0.376791
54 1 2.2858 6.53519 5.5064
50 1 2.26452 8.55145 3.80466
52 1 0.918267 6.15361 5.33959
53 1 0.321843 6.09772 4.12555
60 1 2.51624 7.84109 5.0585
108 1 1.48266 8.7879 8.75372
67 1 1.68741 7.43293 8.27637
71 1 0.548274 6.43443 7.83764
59 1 0.00450586 6.61146 6.48945
75 1 1.59546 8.80472 11.0685
76 1 2.3158 7.72572 11.4125
77 1 2.06703 6.48323 11.1527
89 1 1.48599 10.4951 0.719366
84 1 1.25467 10.2606 2.13211
80 1 0.856243 9.39477 -0.161794
96 1 1.08807 10.6731 5.76177
21 1 1.75836 11.7419 4.956
83 1 2.31569 9.8552 3.10466
109 1 0.471945 9.43418 8.0903
107 1 2.03401 9.30056 9.8827
1 1 3.73718 1.98995 2.27184
3 1 4.91382 1.62 2.8029
16 1 4.076 0.136308 5.04156
18 1 3.73217 1.46255 5.63776
10 1 4.70271 2.045 6.47131
24 1 5.45926 2.64988 8.64563
9 1 5.54935 2.88273 7.21899
25 1 3.21123 1.99947 9.48237
48 1 5.0321 4.84969 0.374313
8 1 3.39956 4.34706 2.28749
46 1 4.62484 4.74793 1.68576
44 1 5.54075 5.31625 2.5768
58 1 5.94407 4.55969 5.60926
56 1 5.05937 5.70304 5.7093
51 1 3.4046 5.61797 5.9706
57 1 2.94671 4.66929 6.87071
78 1 4.55088 3.94926 11.7218
69 1 4.52903 5.12713 10.3056
68 1 3.80125 4.3733 9.4302
37 1 5.35249 2.84484 11.4943
72 1 5.54106 6.00262 10.5534
27 1 4.1279 3.08183 9.16497
81 1 5.67647 5.96825 12.0572
47 1 4.96163 7.89064 2.38936
82 1 4.90303 8.87106 1.33727
49 1 5.75681 6.69143 2.76826
55 1 5.86303 6.9845 5.91876
92 1 4.84466 8.63027 3.60518
73 1 4.10656 7.58321 8.92963
62 1 5.42362 7.40538 8.35958
61 1 5.67356 7.95626 7.01437
65 1 2.9584 6.71907 8.45045
102 1 4.36004 8.945 9.65909
88 1 3.41546 11.2687 1.72645
85 1 2.92416 10.8911 0.384305
90 1 3.72191 9.22802 0.567782
97 1 5.41641 10.3537 5.33593
94 1 5.38234 11.8244 5.26646
87 1 3.2307 10.9989 3.21707
20 1 3.03326 11.7607 4.37983
95 1 5.52787 9.73276 4.05205
93 1 5.57386 9.64655 6.699
100 1 5.43955 10.3755 7.96549
106 1 5.25718 11.7437 8.51032
33 1 3.78616 12.0951 9.04083
98 1 3.46141 11.2234 10.193
99 1 3.32797 9.8297 9.98277
103 1 2.9934 11.6673 11.4632
101 1 5.75307 9.49642 9.11716
114 1 8.57317 1.86821 0.192528
15 1 6.60329 0.137521 5.34718
19 1 6.65051 1.29793 4.5053
123 1 8.75398 0.536484 4.78069
2 1 6.09505 1.68274 3.37313
26 1 6.3629 0.225851 8.45655
134 1 6.68469 2.65391 11.0367
130 1 7.96908 2.87591 11.6852
35 1 6.80263 2.54325 9.48238
129 1 8.57101 0.557954 9.27958
137 1 7.23364 1.24047 9.1475
147 1 7.72249 4.42233 2.50299
139 1 8.86271 5.12346 2.06817
141 1 6.50713 4.45628 3.31312
150 1 8.17914 3.60505 5.10083
156 1 6.82472 4.13087 4.61688
151 1 8.52799 5.21264 7.18921
166 1 7.52346 4.37694 7.5841
23 1 6.40553 4.05201 6.81758
167 1 7.62564 3.81029 8.91724
165 1 8.64782 4.24502 9.84586
136 1 8.87081 3.88237 11.1786
171 1 7.76952 7.9879 1.63678
140 1 7.6394 7.5606 0.285241
145 1 6.94743 6.32735 0.179031
142 1 8.09556 7.23039 2.76003
144 1 6.87356 7.00458 3.63452
148 1 7.01325 7.07065 5.00592
154 1 8.35029 6.98219 5.52646
153 1 8.45457 6.56002 6.84866
162 1 8.59994 7.61959 7.90066
184 1 8.59686 9.11031 7.80722
188 1 7.61231 8.17618 11.2844
160 1 7.59649 7.30962 10.0522
159 1 8.67328 6.75505 9.21738
74 1 6.19634 6.91453 9.516
169 1 7.03766 9.21875 1.9675
91 1 6.08579 9.52857 0.929665
174 1 7.97591 10.5618 3.59922
170 1 6.74107 10.0053 3.21191
121 1 8.00612 12.0118 5.51133
181 1 8.59249 11.4116 8.69863
178 1 8.7423 11.1224 6.3358
180 1 8.12324 10.137 8.95815
177 1 8.77252 9.64477 6.45042
104 1 7.06799 9.73652 9.6591
110 1 7.225 9.52945 10.972
86 1 6.46214 10.0029 12.0456
115 1 10.5138 1.60937 2.02723
112 1 9.55469 1.46534 0.928866
116 1 11.8331 0.975211 2.2999
111 1 9.99512 2.10338 3.28182
120 1 9.95058 0.99356 4.19023
126 1 11.034 -0.0604131 4.25191
127 1 10.1956 0.422692 7.70572
189 1 11.5597 0.137333 7.3297
131 1 9.70174 1.26104 8.73814
135 1 10.3577 2.38561 9.16343
119 1 9.88393 4.6563 1.19835
117 1 11.0168 4.36584 1.82897
146 1 10.9903 4.36141 3.19082
124 1 9.52248 3.64424 5.09192
128 1 10.1945 3.33448 3.77656
157 1 11.2142 5.83953 3.87259
125 1 10.3021 4.19251 6.15366
161 1 10.4472 4.96218 8.4177
155 1 9.82996 4.85535 7.26574
133 1 11.5973 4.50875 8.81196
122 1 11.5328 3.72622 6.27794
132 1 11.6 3.14405 9.22227
163 1 9.41026 5.42706 9.37381
113 1 9.67698 4.57926 12.1436
168 1 12.0362 7.22806 0.685957
149 1 9.87531 7.60299 5.16766
138 1 10.1639 6.75969 3.7441
175 1 9.58401 9.09988 5.36049
143 1 9.06472 6.34515 2.92742
152 1 11.1204 7.29372 6.11838
158 1 11.0731 7.54882 10.7105
164 1 10.8409 8.42606 9.61794
79 1 11.0848 7.20115 12.0233
172 1 10.2342 10.0436 4.26086
173 1 11.0959 10.9468 4.80521
179 1 9.25545 10.5106 3.37105
176 1 11.9552 10.6266 5.97526
182 1 11.6641 10.1582 8.31262
186 1 11.6536 11.0788 7.24479
185 1 9.26177 11.7467 7.50169
187 1 10.6029 10.6045 10.5514
190 1 11.4489 11.7724 10.9665
191 1 9.73585 9.99994 11.5051
183 1 11.0536 9.77192 9.48643
ITEM: TIMESTEP
5000
ITEM: NUMBER OF ATOMS
191
ITEM: BOX BOUNDS pp pp pp
-1.3813584435130663e-01 1.2138135844351188e+01
-1.3813584435130663e-01 1.2138135844351188e+01
-1.3813584435130663e-01 1.2138135844351188e+01
ITEM: ATOMS id type x y z
5 1 2.87787 2.82706 1.88211
12 1 1.11274 0.437481 4.77655
118 1 0.000318417 0.542218 3.69138
13 1 1.1829 1.37084 5.93166
11 1 0.604861 0.894009 7.2223
32 1 1.49505 0.804231 8.43218
31 1 2.89058 0.79845 8.70268
17 1 2.35952 2.21002 5.99868
28 1 0.52893 0.997657 9.47446
29 1 0.343722 2.42645 9.86917
30 1 1.29902 2.76524 10.9053
38 1 2.54581 1.8695 10.8481
36 1 2.80402 0.567286 11.6305
105 1 0.465957 0.148601 10.5711
7 1 -0.0680742 4.63921 1.38133
6 1 0.823287 3.92616 0.641996
4 1 1.52768 2.96002 1.45273
14 1 2.13368 3.64468 6.49039
63 1 0.478407 5.08137 8.62858
22 1 0.702668 3.90005 6.40908
34 1 1.28202 4.05049 11.5901
64 1 1.84511 5.0156 10.7194
66 1 1.75485 4.86805 9.37787
42 1 1.93312 7.75353 1.23205
45 1 0.184003 6.07374 1.58071
39 1 0.565361 8.17025 0.898541
41 1 2.06221 7.35477 2.62789
40 1 0.923235 6.54182 2.85007
43 1 2.90571 8.09236 0.230502
54 1 2.35869 6.59669 5.46647
50 1 2.32865 8.42066 3.58072
52 1 0.842821 6.45441 5.33556
60 1 2.83049 8.00094 4.8046
53 1 0.270459 6.15274 4.11523
108 1 1.22765 8.52433 8.46155
67 1 1.63173 7.16612 8.1642
71 1 0.588999 6.28234 7.85765
59 1 -0.0738959 6.61759 6.4762
109 1 0.0474845 8.93369 7.84775
75 1 1.36442 8.76326 10.856
76 1 2.18039 7.62183 11.3218
77 1 2.24722 6.29783 11.0594
89 1 1.59048 10.3956 0.574969
84 1 1.56215 10.224 2.01119
80 1 0.768603 9.40684 -0.155835
21 1 1.78138 11.5881 5.13621
96 1 1.11208 10.3445 5.48682
83 1 2.33197 9.80595 3.0994
107 1 1.82334 9.06552 9.59293
1 1 3.45057 1.48256 1.83659
3 1 4.41766 0.633681 2.30938
2 1 5.69564 1.03412 2.77989
16 1 3.99351 0.121861 5.37773
18 1 3.64123 1.40987 5.89472
10 1 4.94992 2.10647 6.39201
24 1 5.43008 2.58188 8.62695
9 1 5.63919 2.92313 7.31352
25 1 3.22001 1.95777 9.51065
27 1 4.15994 2.8616 9.13124
48 1 4.94135 5.0655 0.333831
8 1 3.65657 3.93704 2.03282
46 1 4.66265 4.87122 1.68684
44 1 5.34679 5.55321 2.7073
58 1 5.90072 4.71713 5.8402
56 1 5.10258 5.84475 5.93887
70 1 2.93501 5.12492 8.60926
57 1 3.02981 4.73443 7.05333
51 1 3.66399 5.65064 6.06789
78 1 4.98411 4.11955 11.621
69 1 4.93669 4.79098 10.3022
68 1 4.03367 4.2381 9.34504
37 1 5.76679 2.83147 11.6748
47 1 4.88758 8.27025 2.4841
49 1 5.63218 7.04935 2.83992
55 1 5.89425 7.01746 5.79284
73 1 4.2747 7.42717 8.66353
62 1 5.59296 7.2035 8.35579
61 1 5.74974 7.91479 6.86184
65 1 3.00934 6.67288 8.42441
102 1 4.18008 8.77169 9.30748
72 1 5.35939 6.15995 10.5811
81 1 5.16341 6.34351 12.0607
90 1 3.6779 9.26856 0.277693
88 1 4.08692 11.5598 2.64115
85 1 2.94442 10.465 -0.0820181
82 1 4.75444 9.11402 1.20084
97 1 5.60244 10.3247 5.37136
94 1 5.32839 11.7176 5.27484
87 1 3.25496 10.832 3.49437
20 1 3.09082 11.4202 4.75071
92 1 4.94934 9.12298 3.53452
93 1 5.45984 9.53496 6.66995
100 1 5.24361 10.2192 7.85289
106 1 4.99861 11.5788 8.13407
33 1 3.69473 11.9038 8.80103
101 1 5.44043 9.52156 9.10739
98 1 3.34186 10.9944 9.89182
103 1 3.14635 11.4823 11.2662
99 1 3.12583 9.61864 9.53884
15 1 6.64517 0.0353145 5.00048
19 1 6.40856 1.07975 3.95657
123 1 8.92806 0.930822 5.29959
26 1 6.04948 0.187081 8.45377
137 1 7.14203 0.963426 9.09626
134 1 6.90348 2.35148 10.9713
130 1 8.38021 2.6163 11.4966
35 1 6.88971 2.47057 9.4251
129 1 8.41656 0.36282 9.19721
147 1 7.6815 4.80274 2.35938
139 1 8.98211 5.34287 2.16282
141 1 6.4921 4.93061 3.28895
150 1 7.97411 4.00222 4.93954
156 1 6.74031 4.76487 4.7683
151 1 8.44773 5.33312 7.22251
166 1 7.47121 4.47779 7.83767
23 1 6.40538 3.99948 7.0099
165 1 8.42114 4.55297 10.0905
136 1 8.67708 4.02828 11.3504
167 1 7.52765 3.85096 9.17453
171 1 7.70987 8.23965 1.65048
140 1 7.47933 7.749 0.301982
145 1 6.25766 7.01474 0.390506
142 1 8.05299 7.48469 2.70108
144 1 6.94198 7.41359 3.64254
148 1 7.0511 7.15354 5.07536
154 1 8.339 7.02141 5.57644
153 1 8.34377 6.81198 6.94123
162 1 8.49196 7.69015 7.98776
188 1 7.59721 8.20377 11.2942
160 1 7.50248 7.29537 10.065
159 1 8.66358 6.96044 9.30807
74 1 6.28916 6.70128 9.64549
169 1 7.04233 9.50048 1.87611
91 1 5.98585 9.8092 1.0442
174 1 8.41545 10.8031 3.2576
170 1 7.27987 9.96966 3.30067
121 1 7.92669 12.1077 5.58381
95 1 6.0531 9.73626 4.24662
181 1 8.40307 11.2656 8.62371
178 1 8.57689 11.0672 6.32974
180 1 7.78385 10.1056 8.73899
177 1 8.81775 9.5683 6.39547
184 1 8.47216 9.11228 7.71963
104 1 6.75347 9.75461 9.67301
110 1 7.08328 9.54084 11.0145
86 1 6.43558 10.2456 12.0057
115 1 10.7363 1.78898 2.14972
112 1 10.1742 1.57117 0.890799
116 1 11.9655 1.18812 2.46599
114 1 9.18327 1.69567 0.0214638
111 1 10.0175 2.08135 3.45315
120 1 9.94175 0.887057 4.24512
126 1 10.9223 -0.0134379 4.29238
127 1 10.1557 0.414849 7.67633
189 1 11.5609 0.147974 7.35246
131 1 9.62525 1.06141 8.7974
135 1 10.2653 2.23779 9.38072
119 1 9.80804 4.49692 1.4159
117 1 11.0666 4.24418 1.94959
113 1 9.47035 4.47054 0.0856527
146 1 10.9814 4.31664 3.35452
124 1 9.45416 3.85783 5.04236
128 1 10.175 3.35222 3.96874
157 1 11.2523 5.73501 3.9865
161 1 10.3019 5.05352 8.47803
155 1 9.70279 4.69465 7.25666
125 1 10.3108 4.0766 6.15865
122 1 11.6813 3.9059 6.28121
163 1 9.31666 5.6857 9.5091
132 1 11.4352 3.14346 9.55151
133 1 11.4531 4.53767 9.00238
168 1 11.965 7.05975 0.669859
149 1 9.73565 7.56232 5.24098
138 1 10.0893 6.72719 3.98029
175 1 9.65369 9.04348 5.32741
143 1 9.1302 6.46006 2.92622
152 1 10.7726 6.97668 6.22057
158 1 11.0092 7.88338 10.87
164 1 10.724 8.75358 9.97927
79 1 11.0199 7.35031 12.0724
172 1 10.3294 9.96531 4.4859
173 1 11.0756 11.011 4.9248
179 1 9.6527 10.3852 3.25723
176 1 11.9856 10.4259 5.8861
182 1 11.6066 10.1227 8.35992
186 1 11.5865 10.9802 7.23271
185 1 9.26052 11.5185 7.41994
187 1 10.6593 11.1028 10.3514
190 1 11.7457 11.6647 10.9871
191 1 9.48176 11.116 10.9629
183 1 10.9576 10.0221 9.54194
ITEM: TIMESTEP
6000
ITEM: NUMBER OF ATOMS
191
ITEM: BOX BOUNDS pp pp pp
-1.6223272063292327e-01 1.2162232720632815e+01
-1.6223272063292327e-01 1.2162232720632815e+01
-1.6223272063292327e-01 1.2162232720632815e+01
ITEM: ATOMS id type x y z
12 1 1.11988 0.452817 4.8722
118 1 0.172412 0.585213 3.82815
13 1 1.31137 1.09092 6.15737
11 1 0.579627 0.765101 7.42219
32 1 1.49203 0.704908 8.50653
31 1 2.83336 0.926259 8.7261
17 1 2.53198 1.95904 6.13431
28 1 0.793557 0.989204 9.69607
29 1 0.41056 2.35512 9.93698
30 1 1.34053 2.64136 11.1129
38 1 2.67779 1.84807 10.8756
105 1 0.388062 0.0305059 10.5825
4 1 1.51439 3.08764 1.49935
6 1 0.736747 4.01988 0.667104
5 1 2.80434 2.8529 1.90126
7 1 -0.102041 4.83198 1.35557