ITEM: TIMESTEP
1000
ITEM: NUMBER OF ATOMS
191
ITEM: BOX BOUNDS pp pp pp
0.0000000000000000e+00 1.2000000000000000e+01
0.0000000000000000e+00 1.2000000000000000e+01
0.0000000000000000e+00 1.2000000000000000e+01
ITEM: ATOMS id type x y z
12 1 1.20509 0.848646 4.8824
1 1 2.45416 2.21262 3.44646
118 1 0.0568909 0.931156 4.21542
31 1 2.7963 1.20012 8.59879
32 1 1.33362 1.11411 8.47168
11 1 0.524598 1.20419 7.34151
17 1 2.71238 2.40746 6.16634
13 1 1.38231 1.67759 6.10224
28 1 0.600435 1.06936 9.68613
29 1 0.380463 2.49177 10.0643
30 1 1.54051 2.88833 10.6729
38 1 2.76966 2.1392 10.5977
4 1 2.18611 3.42645 1.49308
6 1 1.37529 4.1638 0.681185
7 1 0.316389 4.7799 1.23673
5 1 2.72351 3.38718 2.80547
53 1 0.358511 5.83537 4.1516
14 1 2.48962 3.77126 6.47623
22 1 1.04066 4.12647 6.92577
63 1 0.861504 4.89394 8.19573
34 1 1.60511 4.1806 11.3394
64 1 1.84804 5.17285 10.4568
66 1 1.97643 4.87993 9.13738
39 1 0.181589 8.50532 0.712513
43 1 2.65505 8.15867 0.868042
42 1 1.41328 7.99508 1.5577
45 1 0.410238 6.0196 1.6437
40 1 0.607622 6.50916 2.98891
41 1 1.37971 7.70322 2.91852
54 1 2.3679 6.52629 5.21292
50 1 2.14686 8.46843 3.69532
52 1 1.04645 6.21113 5.25484
60 1 2.43505 7.90596 4.88676
59 1 0.319578 6.54721 6.41356
67 1 1.82448 7.31926 8.10585
71 1 0.824954 6.39916 7.65354
108 1 1.50378 8.72625 8.5489
75 1 1.63839 8.73584 10.9
76 1 2.39605 7.75422 11.4558
77 1 2.36185 6.3648 11.1126
89 1 1.68557 10.4378 0.778156
84 1 1.26087 10.293 2.26055
96 1 1.39937 10.5244 5.80047
21 1 1.92503 11.6793 5.0829
83 1 1.97272 9.86486 3.45811
109 1 0.460584 9.13924 7.92927
107 1 1.96788 9.23301 9.68906
80 1 0.964113 9.47731 11.8748
3 1 3.46182 1.23958 3.5408
16 1 4.12741 0.164967 5.50129
2 1 4.94593 1.47411 3.18049
9 1 5.79569 2.82726 7.153
24 1 5.70492 2.43076 8.65892
26 1 5.83625 0.933983 8.58776
10 1 5.33926 2.06308 6.16372
18 1 3.95423 1.52412 6.0336
25 1 3.47206 2.22466 9.36298
36 1 3.1563 1.05003 11.3995
48 1 4.33373 4.65548 0.709691
44 1 5.99016 5.22315 2.44868
46 1 4.83482 4.57961 2.03733
8 1 3.91788 4.06314 2.96916
58 1 5.89245 4.77236 5.62939
56 1 5.05263 5.94244 5.47293
51 1 3.61934 5.79543 5.77172
70 1 3.40603 5.25056 8.37877
57 1 3.29911 4.88631 6.83742
78 1 5.12797 4.29346 11.5245
68 1 4.40579 4.42649 9.42396
69 1 5.059 5.21573 10.3426
27 1 4.47806 3.0505 9.22505
47 1 5.19546 7.94796 2.43487
82 1 4.90455 8.78538 1.39948
92 1 5.0144 8.61295 3.70179
55 1 5.95341 7.18716 5.53858
73 1 4.19161 7.74413 8.55678
62 1 5.53684 7.49362 7.95057
65 1 3.19209 6.8109 8.4114
61 1 5.63671 8.06901 6.60218
72 1 5.55993 6.5066 10.3029
81 1 5.54413 7.76087 11.0694
88 1 3.49987 11.0428 2.1632
85 1 3.16455 10.4098 1.00517
91 1 5.91697 9.71594 1.04399
90 1 3.67653 9.11918 1.0001
94 1 5.51007 11.7138 5.47563
97 1 5.54044 10.2859 5.25334
87 1 3.11333 10.7168 3.43176
20 1 3.18504 11.8843 4.2963
95 1 5.89847 9.73487 4.04418
93 1 5.64775 9.60237 6.45837
100 1 5.39615 10.4731 7.59658
101 1 5.51693 9.71445 8.84227
106 1 4.93343 11.8978 7.96221
33 1 3.59975 11.9983 8.55921
98 1 3.50555 11.1841 9.68144
103 1 3.22428 11.7935 10.9441
99 1 3.27887 9.79207 9.59418
102 1 4.32834 9.07969 9.01661
114 1 8.60925 1.0636 0.341457
15 1 6.28686 1.03729 5.36838
19 1 6.14573 1.31933 3.9212
121 1 7.76238 0.614062 5.91285
128 1 8.88866 2.97665 3.70562
129 1 8.35478 0.18746 9.37563
130 1 8.26103 2.13424 11.4211
137 1 7.02759 0.504277 9.32774
134 1 6.96563 2.54662 10.8961
35 1 6.87822 2.8466 9.43909
147 1 8.12484 3.78741 2.81579
139 1 8.95702 4.71955 2.11283
141 1 6.86754 4.534 3.29409
150 1 8.14886 4.52859 5.47536
156 1 6.87198 4.6036 4.71775
151 1 8.27125 5.07366 6.80782
166 1 7.22697 4.60737 7.64401
23 1 6.11789 4.13615 6.99852
167 1 7.57641 4.01855 8.90824
165 1 8.33637 4.89564 9.7276
37 1 6.09022 3.28999 11.648
49 1 6.32647 6.66491 2.15676
140 1 7.99375 7.68454 0.383597
142 1 8.58072 7.38481 2.5869
145 1 6.96274 6.67636 0.681379
171 1 8.11027 8.45739 1.63405
144 1 7.31434 7.04926 3.2988
148 1 7.18411 7.1601 4.73754
154 1 8.35935 7.1502 5.53352
153 1 8.1698 6.55922 6.73473
162 1 8.58165 7.49694 7.74916
184 1 8.14193 8.93666 7.51019
188 1 7.99517 8.26872 11.0671
74 1 6.48352 6.90777 9.14608
160 1 7.81743 7.2395 9.89896
169 1 7.09657 9.53003 1.87342
174 1 7.97704 10.9841 3.56656
170 1 6.93637 10.1165 3.21665
177 1 8.34338 9.55504 6.12299
178 1 8.10362 11.1346 6.34415
180 1 7.89147 9.70405 8.60484
181 1 8.60636 10.9521 8.71045
185 1 8.91145 11.4014 7.40967
104 1 6.73251 9.58153 9.41521
110 1 6.49943 9.08283 10.8292
86 1 6.07477 10.1283 11.7812
115 1 10.3233 1.23323 2.44296
116 1 11.6482 0.993539 2.82226
112 1 9.70433 1.22206 1.2498
111 1 9.4857 1.66562 3.53701
126 1 10.9251 0.207048 4.75638
120 1 9.76984 1.11383 4.82804
123 1 9.07273 1.35593 5.95414
127 1 9.85358 0.871564 7.35898
189 1 11.3665 0.497339 7.24559
131 1 9.26943 1.27343 8.8753
135 1 9.92736 2.45712 9.72437
136 1 9.31994 2.91918 10.9834
105 1 11.8296 0.0101488 10.1355
119 1 10.0568 4.12402 1.1601
117 1 11.2913 4.10232 1.87838
157 1 11.3328 4.9189 4.17809
124 1 9.18021 3.70881 5.01453
146 1 11.3855 3.97031 3.30822
138 1 10.2186 5.74187 3.89366
161 1 10.2777 4.94223 8.31128
155 1 9.72347 4.77316 7.05922
133 1 11.4486 4.36918 8.8939
122 1 11.7791 3.7662 6.22739
125 1 10.4313 4.01175 6.05778
163 1 9.44619 5.61201 9.18789
113 1 9.86272 3.82653 11.855
132 1 11.2015 3.12199 9.46298
143 1 9.41135 6.11047 2.82495
168 1 11.139 7.60473 0.563201
149 1 9.69535 7.6531 5.41856
152 1 10.827 7.13612 6.19421
159 1 9.168 7.09184 8.9772
158 1 11.2905 7.02504 10.2119
164 1 10.4181 7.84684 9.49228
79 1 11.2299 6.74242 11.5198
172 1 10.0074 10.0659 4.56232
173 1 11.0291 10.7553 5.07982
175 1 9.42791 9.05859 5.30838
179 1 9.28849 10.6904 3.58403
182 1 11.2861 9.8532 8.11419
186 1 11.4828 11.032 7.29613
176 1 11.9937 10.5963 6.03074
187 1 10.2157 9.88624 10.5578
190 1 10.9942 11.1135 10.7664
183 1 10.5117 9.3033 9.2034
191 1 9.03 9.33326 11.045
ITEM: TIMESTEP
2000
ITEM: NUMBER OF ATOMS
191
ITEM: BOX BOUNDS pp pp pp
-1.1630159643634369e-01 1.2116301596436372e+01
-1.1630159643634369e-01 1.2116301596436372e+01
-1.1630159643634369e-01 1.2116301596436372e+01
ITEM: ATOMS id type x y z
5 1 2.91533 2.86575 2.06723
12 1 1.10868 0.647641 4.71333
118 1 0.0190614 0.451372 3.87709
13 1 1.20841 1.45128 5.96443
31 1 2.61504 0.775068 8.81227
32 1 1.21768 0.709481 8.52589
11 1 0.528105 0.978577 7.21169
17 1 2.51994 2.25573 6.12198
28 1 0.291022 0.94763 9.55633
29 1 0.334009 2.3506 10.0186
30 1 1.35066 2.67835 10.861
38 1 2.55226 2.01795 10.6734
7 1 0.284062 4.76285 1.27452
6 1 1.11896 3.94362 0.519991
45 1 0.824263 5.89248 1.89195
4 1 1.81336 3.03181 1.26806
14 1 2.3755 3.56915 6.68093
22 1 0.960583 3.77525 7.15067
63 1 0.691437 4.61538 8.33174
34 1 1.26204 3.97809 11.3576
64 1 1.80997 5.06196 10.6244
66 1 1.87272 4.77995 9.26435
39 1 0.187293 8.82189 0.881188
43 1 2.51693 8.29627 0.580521
42 1 1.4055 8.25062 1.55001
41 1 1.73186 7.81276 2.84001
54 1 2.42959 6.8537 5.67783
50 1 2.28633 8.77995 3.71616
52 1 0.922593 6.35611 5.53237
60 1 2.60486 8.09509 4.94828
40 1 1.14898 6.58927 3.07993
53 1 0.331553 6.20254 4.24191
108 1 1.32208 8.49555 8.44747
67 1 1.59758 7.09214 8.35227
71 1 0.59714 6.2232 7.94907
59 1 -0.0387917 6.66801 6.65517
109 1 0.165636 9.0409 7.88232
77 1 2.18585 6.28159 11.4081
76 1 2.06355 7.76275 11.6416
75 1 1.43404 8.91452 10.8589
89 1 1.65538 10.7452 0.469923
84 1 1.41639 10.7745 1.87177
83 1 2.48887 10.0598 3.15051
21 1 1.9227 11.7232 5.06417
96 1 1.36919 10.6327 5.72409
176 1 -0.0589039 10.7993 6.02901
107 1 1.81374 9.21847 9.59166
80 1 0.761026 9.6424 11.9715
3 1 4.61165 0.90223 1.90445
1 1 3.84385 1.94416 1.87419
2 1 5.80422 0.710509 2.43349
16 1 4.05635 0.0671088 5.42927
18 1 3.71852 1.41573 5.85619
26 1 5.72259 0.715477 9.00886
24 1 5.58645 2.32998 8.82758
10 1 4.84465 1.97512 6.4484
9 1 5.5636 2.69391 7.35981
25 1 3.06821 1.99254 9.29932
36 1 3.07776 0.812779 11.4864
48 1 4.17836 5.22594 0.615098
44 1 5.5897 5.31807 2.69634
46 1 4.373 5.02295 2.05089
8 1 3.44975 4.06451 2.58867
56 1 5.18093 5.79453 5.6242
58 1 5.95444 4.63882 5.57173
70 1 3.14204 5.09437 8.43862
57 1 3.2602 4.83888 6.84002
51 1 3.54257 5.92191 6.02927
78 1 4.72028 4.73887 11.7164
68 1 4.27196 4.39728 9.2457
69 1 4.92074 5.12256 10.3675
37 1 5.64309 3.56607 11.8116
27 1 4.02788 2.95512 9.12563
47 1 5.12126 7.98905 2.31744
82 1 4.73185 8.8445 1.31832
92 1 5.15275 8.49114 3.57073
55 1 5.98366 7.11953 5.62335
73 1 4.13726 7.75604 8.52226
62 1 5.6635 7.41834 8.02346
61 1 5.90608 8.03334 6.82572
65 1 3.05737 6.68797 8.48482
72 1 5.3337 6.42862 10.2825
81 1 5.4065 7.6921 11.078
102 1 4.30737 8.94699 9.10409
88 1 3.75283 11.4507 1.9804
85 1 3.2009 10.8553 0.427558
91 1 5.96746 9.66351 1.00602
90 1 3.55645 9.30864 0.668162
94 1 5.45703 11.7406 5.37287
97 1 5.62902 10.2075 5.26889
20 1 3.19663 11.6862 4.50925
87 1 3.30153 11.0155 3.38588
95 1 5.73157 9.69883 3.94373
93 1 5.5346 9.6799 6.63142
100 1 5.44926 10.7034 7.82477
101 1 5.47008 9.73673 8.92786
106 1 4.93054 12.0889 8.18821
33 1 3.6323 11.9546 8.92466
98 1 3.39705 11.1221 9.9531
103 1 3.451 11.696 11.4035
99 1 3.14441 9.67328 9.68341
114 1 8.54472 1.66898 0.345358
15 1 6.7858 0.0970157 4.69249
19 1 6.55154 0.744768 3.52036
123 1 8.97897 1.03491 5.41628
129 1 8.21083 0.238847 9.67783
130 1 7.93963 2.50905 11.5901
137 1 6.82167 0.300116 9.98234
134 1 6.64104 2.75974 11.1194
147 1 7.85127 4.82741 2.35489
141 1 6.69216 4.53265 3.18526
150 1 8.25966 3.70164 4.80538
156 1 6.97359 4.24113 4.60002
151 1 8.54023 5.02808 7.15469
166 1 7.49782 4.39931 7.74909
23 1 6.26446 3.95517 6.95437
167 1 7.45347 3.92644 9.03512
165 1 8.45641 4.44916 9.92106
35 1 6.58778 3.00867 9.65099
136 1 9.01279 3.38116 10.9049
171 1 7.99732 8.43198 1.68482
140 1 7.64412 7.65781 0.331625
142 1 8.31257 7.44926 2.69018
145 1 6.76326 6.57592 0.885099
49 1 6.02677 6.72761 2.30549
144 1 7.25306 6.99548 3.438
148 1 7.26123 7.07638 4.82399
154 1 8.42308 6.98328 5.60064
153 1 8.36392 6.41376 6.94544
162 1 8.48715 7.53596 7.82183
184 1 8.32632 8.98269 7.77176
188 1 7.82422 8.28143 11.1166
160 1 7.7452 7.1336 9.9611
74 1 6.2472 6.62976 9.16903
110 1 6.44063 8.98368 10.8741
159 1 8.97795 7.03894 9.15547
169 1 7.01519 9.41463 1.90748
174 1 8.14994 10.6528 3.4503
170 1 6.97182 10.0905 3.19026
121 1 8.06518 12.0566 5.6701
177 1 8.82344 9.72527 6.53819
178 1 8.64824 11.1291 6.52534
180 1 7.80715 9.93246 8.8164
181 1 8.29017 11.1997 8.9661
104 1 6.69737 9.53522 9.52294
86 1 6.0814 9.99588 11.9374
191 1 8.90044 9.42951 10.9795
115 1 10.739 1.49149 2.06288
112 1 9.55752 1.33757 1.15501
116 1 12.0116 0.879111 2.32456
111 1 10.292 1.90186 3.3796
120 1 10.0888 0.982814 4.54263
126 1 11.1555 0.0733611 4.52801
127 1 10.0534 0.583744 7.99589
189 1 11.3159 0.359641 7.39557
135 1 9.90795 2.51656 9.93961
131 1 9.36787 1.24943 9.18124
132 1 11.3658 2.93198 9.76585
105 1 11.5435 0.0338753 10.2597
119 1 10.0095 4.62091 1.11601
117 1 11.293 4.35098 1.74834
139 1 9.09353 5.32536 1.92147
157 1 11.4479 5.61921 3.85166
124 1 9.71145 3.62133 5.03061
128 1 10.5117 3.27681 3.88202
146 1 11.3256 4.30464 3.29293
161 1 10.4242 4.91551 8.52821
155 1 9.95316 4.60922 7.20549
125 1 10.5756 3.93875 6.17599
122 1 11.9923 3.74687 6.28273
133 1 11.5577 4.24946 9.00758
163 1 9.31741 5.44273 9.36481
113 1 9.63495 4.16274 12.0995
143 1 9.36361 6.69088 2.54312
168 1 11.261 7.97767 0.84079
149 1 9.77033 7.76174 5.60596
138 1 10.3884 6.54449 3.46956
152 1 11.0187 7.21457 6.12291
158 1 11.0584 7.20325 10.496
164 1 10.3684 7.87273 9.40403
79 1 11.0241 7.25569 11.837
172 1 10.2274 10.1215 4.69471
173 1 11.2548 11.0261 5.02412
179 1 9.52399 10.5729 3.50078
175 1 9.55805 9.1337 5.51471
182 1 11.4131 9.90921 8.25484
186 1 11.5856 11.1442 7.43631
185 1 9.07632 11.7491 7.72544
187 1 9.98293 10.0303 10.2078
190 1 10.7469 11.1527 10.4705
183 1 10.4728 9.25444 9.18712
ITEM: TIMESTEP
3000
ITEM: NUMBER OF ATOMS
191
ITEM: BOX BOUNDS pp pp pp
-2.2455115214982721e-01 1.2224551152149880e+01
-2.2455115214982721e-01 1.2224551152149880e+01
-2.2455115214982721e-01 1.2224551152149880e+01
ITEM: ATOMS id type x y z
12 1 0.916972 0.612859 4.76741
118 1 -0.130611 0.904088 4.02985
31 1 2.80871 0.968833 8.78216
32 1 1.26249 0.750298 8.64796
11 1 0.409327 0.659428 7.44916
17 1 2.32734 1.96294 6.37983
13 1 1.117 1.19555 6.20796
28 1 0.472817 0.760121 9.92832
29 1 0.15224 2.12416 10.3241
30 1 1.2817 2.59597 11.1377
38 1 2.48822 1.79299 10.8625
36 1 2.79967 0.58142 11.6296
7 1 0.207768 4.62096 1.14188
6 1 1.05669 3.84242 0.474001
45 1 0.784174 5.6186 1.91271
4 1 2.05119 2.95722 1.13016
14 1 2.04912 3.3761 6.62313
22 1 0.743473 3.90578 7.05161
63 1 0.623696 4.89059 8.43119
34 1 1.29729 3.91584 11.5381
64 1 1.60707 5.13681 10.7779
66 1 1.71774 4.93211 9.43736
39 1 0.242541 8.66195 0.880512
42 1 1.42552 8.1779 1.55717
43 1 2.55067 8.07153 0.597588
41 1 1.65027 7.64967 2.84468
54 1 2.21066 6.43872 5.33138
50 1 2.132 8.60297 3.75667
52 1 0.742381 6.28221 5.35354
60 1 2.48159 7.77952 4.90965
40 1 0.990502 6.44792 2.94936
53 1 0.194434 6.00933 4.05666
108 1 1.28159 8.52915 8.99831
67 1 1.53577 7.24994 8.38746
71 1 0.56989 6.62392 7.70147
59 1 -0.0765998 6.7081 6.43789
77 1 1.98441 6.31049 11.2841
76 1 1.93386 7.75874 11.7803
75 1 1.36013 9.01749 11.3049
89 1 1.46452 10.8108 0.787578
84 1 1.11758 10.4603 2.24297
80 1 0.777341 9.78499 -0.0601241
96 1 0.968224 10.7096 5.47402
21 1 1.66405 11.8362 4.86959
83 1 2.01211 10.0169 3.19082
109 1 0.220708 9.09767 8.1867
107 1 1.90212 9.23468 10.0703
3 1 4.41805 0.141 1.92816
1 1 3.58916 1.18902 1.73099
5 1 3.26403 2.49158 1.77688
2 1 5.58765 0.505876 2.53877
10 1 4.97833 1.84461 6.73286
26 1 5.89478 0.330419 8.5549
18 1 3.74361 1.35991 6.2897
25 1 3.23428 2.0284 9.65126
48 1 4.31059 4.84911 0.460283
44 1 5.55718 5.43357 2.38838
46 1 4.57917 4.66585 1.76251
8 1 4.29597 3.36129 2.14915
56 1 5.0607 6.01685 5.3503
51 1 3.36834 5.60883 5.55276
58 1 5.84873 4.75065 5.50633
57 1 3.003 4.33554 5.9906
70 1 3.03223 5.50608 9.02276
24 1 5.43278 2.92468 8.77872
9 1 5.50623 3.02621 7.35819
78 1 5.0352 4.56489 11.8284
68 1 4.02257 4.66628 9.59002
69 1 4.92312 5.37452 10.5324
37 1 5.78717 3.4113 11.6621
27 1 4.12077 3.26951 9.53309
47 1 4.83213 8.05363 2.10126
49 1 5.65393 6.7105 1.68647
82 1 4.71504 8.94014 1.09144
92 1 5.24171 8.46074 3.41861
73 1 4.21862 7.75965 8.65781
62 1 5.62686 7.27906 8.16994
61 1 5.83143 8.0891 6.78171
65 1 3.01315 6.89671 8.56669
72 1 5.45632 6.64343 10.3735
81 1 5.42078 7.85949 11.0395
102 1 4.22131 9.03684 9.3411
88 1 3.80664 11.3206 2.06718
85 1 2.96133 10.7375 0.488352
91 1 6.00841 9.68179 0.96419
90 1 3.44863 9.17024 0.504828
94 1 5.36579 11.5346 5.37866
97 1 5.55682 10.0681 5.31865
95 1 5.89798 9.5224 4.08403
20 1 3.08969 11.4838 4.53362
87 1 3.10341 10.91 3.21896
16 1 3.99388 12.2394 5.40478
93 1 5.49896 9.61071 6.66842
100 1 5.24074 10.474 7.74513
106 1 4.74859 11.9042 8.15525
101 1 5.37315 9.70204 8.9273
33 1 3.57924 12.1422 8.97898
98 1 3.31702 11.2149 10.1768
103 1 3.11435 11.7357 11.5649
99 1 3.12657 9.89221 9.85994
114 1 9.00342 1.9441 0.182308
123 1 8.65552 0.817866 5.11156
19 1 6.14443 0.60721 3.8194
15 1 6.53918 -0.0862604 4.98855
121 1 7.81616 -0.208276 5.69717
129 1 8.30844 0.257255 9.5928
130 1 8.15572 2.58267 11.5365
134 1 6.82866 2.803 10.9494
137 1 6.99535 0.725856 9.21362
147 1 7.94769 4.80032 2.36485
139 1 9.10961 5.2138 1.5608
156 1 6.91033 4.44991 4.58837
150 1 8.30535 3.88544 5.10465
141 1 6.76129 4.76423 3.09342
151 1 8.56047 5.23137 7.06951
166 1 7.40234 4.63339 7.63685
23 1 6.33795 4.09587 6.94303
167 1 7.58847 3.99772 8.89434
165 1 8.62074 4.5203 9.84079
35 1 6.7287 3.1194 9.51961
171 1 7.88011 8.45078 1.31378
140 1 7.62709 7.75393 0.117957
142 1 8.28841 7.51943 2.24961
145 1 6.56423 6.89751 0.419858
144 1 7.55741 7.40792 3.46749
148 1 7.36642 7.18375 4.83511
154 1 8.62549 7.11705 5.49247
55 1 6.07047 7.18452 5.58908
153 1 8.49665 6.58346 6.85951
162 1 8.60515 7.6815 7.79082
188 1 7.90816 8.27254 11.1344
160 1 7.86361 7.12665 10.0123
74 1 6.38794 6.70142 9.30532
159 1 9.0982 6.95414 9.09779
110 1 6.47309 9.00281 10.8847
169 1 7.06506 9.52131 1.84508
174 1 7.97953 10.9523 3.45241
170 1 6.96539 10.0792 3.21827
177 1 8.86996 9.93648 6.65412
178 1 8.61127 11.3481 6.69554
180 1 7.91576 9.96226 8.87948
181 1 8.50304 11.3206 8.97233
184 1 8.40882 9.19547 7.81793
104 1 6.71703 9.50881 9.52067
86 1 6.28484 9.97494 12.0799
115 1 10.8264 1.73275 2.30896
112 1 10.168 1.80465 1.07435
116 1 12.1115 1.31728 2.71852
111 1 10.1972 2.0719 3.58359
120 1 9.91635 0.930005 4.36394
126 1 11.0214 0.146733 4.40907
127 1 10.2538 0.235489 8.12997
189 1 11.6584 0.0697182 7.70049
135 1 10.1602 2.32765 9.90999
131 1 9.63105 1.09409 9.28945
119 1 10.0932 4.54731 0.948599
117 1 11.2722 4.2557 1.72427
157 1 11.3783 5.63168 3.75216
124 1 9.76109 3.82664 5.13181
128 1 10.4243 3.44964 3.96835
146 1 11.279 4.29348 3.2029
161 1 10.5076 4.86331 8.6359
155 1 9.94924 4.74621 7.29361
125 1 10.5974 4.02845 6.18096
122 1 11.9459 3.72128 6.41842
133 1 11.5775 4.21373 9.07297
163 1 9.43265 5.56972 9.38465
113 1 9.80053 4.091 12.0694
136 1 9.11924 3.47788 10.7683
132 1 11.5435 2.87774 9.79818
143 1 9.45302 6.57652 2.1681
168 1 11.4467 8.1767 0.729637
149 1 9.80753 7.98281 5.50504
138 1 10.3932 6.45086 3.21263
152 1 11.217 7.52301 6.00377
158 1 11.016 7.31575 10.7665
164 1 10.4864 7.78431 9.47127
79 1 11.0868 7.51012 12.1259
183 1 10.5967 9.08075 9.16586
172 1 10.1079 10.33 4.67215
173 1 11.096 11.3023 5.03183
179 1 9.26659 10.7333 3.68368
175 1 9.51073 9.37003 5.50761
182 1 11.4833 9.74872 8.231
186 1 11.6684 11.1535 7.3718
185 1 9.23729 11.7216 7.86929
176 1 12.0318 10.9406 5.98708
187 1 10.2275 9.90485 10.3351
190 1 11.2029 11.0773 10.6592
191 1 9.21478 9.34398 11.1093
105 1 12.1933 12.0323 10.2583
ITEM: TIMESTEP
4000
ITEM: NUMBER OF ATOMS
191
ITEM: BOX BOUNDS pp pp pp
-1.8852112182227782e-01 1.2188521121822317e+01
-1.8852112182227782e-01 1.2188521121822317e+01
-1.8852112182227782e-01 1.2188521121822317e+01
ITEM: ATOMS id type x y z
12 1 1.10134 0.42055 4.69738
118 1 0.0689813 0.432025 3.84953
13 1 1.16713 1.13798 5.9864
31 1 2.69105 1.07303 8.54383
32 1 1.25427 0.841016 8.4083
11 1 0.413572 0.722575 7.29216
17 1 2.39415 1.89889 6.17731
28 1 0.2193 0.958813 9.72471
29 1 0.0598566 2.26311 10.1905
30 1 1.21299 2.80511 10.7654
38 1 2.39958 1.95388 10.7284
36 1 2.64532 0.683546 11.3572
7 1 0.149962 4.55396 1.32146
6 1 1.12311 3.83978 0.574215
45 1 0.829394 5.37446 2.19337
4 1 1.98983 3.08646 1.33413
53 1 0.411091 5.80355 4.39466
22 1 0.723044 3.4161 5.80551
57 1 2.88005 4.45112 5.95799
63 1 0.317431 5.18831 8.75934
14 1 2.13287 3.29311 6.03273
34 1 1.23817 3.92609 11.5763
64 1 1.4565 5.18321 11.0273
66 1 1.43316 5.08106 9.59782
70 1 2.85891 5.37838 9.12285
39 1 0.661984 8.33384 0.883336
42 1 1.83242 7.76377 1.58868
43 1 2.83493 7.93352 0.778459
54 1 2.48922 6.79885 5.56924
50 1 2.29084 8.3954 3.74956
52 1 0.746929 6.33733 5.66799
60 1 2.8548 7.97885 4.96641
40 1 1.31653 6.20018 3.30918
41 1 1.60387 7.50406 2.92365
59 1 -0.186831 6.57613 6.73047
67 1 1.53227 7.24435 8.37492
71 1 0.55421 6.30296 7.90566
108 1 1.08469 8.43407 8.91934
109 1 -0.0315497 8.95365 8.17652
65 1 2.82525 6.76419 8.66189
77 1 2.31878 6.18814 11.6216
76 1 2.52958 7.50753 11.8325
75 1 1.67701 8.70619 11.2543
107 1 1.7021 9.10242 9.96857
89 1 1.54669 10.5337 0.804161
84 1 1.14181 10.2958 2.29232
80 1 0.984092 9.41599 0.00447481
83 1 2.27064 9.80581 3.21158
21 1 1.79654 11.6104 4.98588
96 1 1.06488 10.5717 5.84949
103 1 2.89533 11.783 11.002
3 1 4.27618 0.282209 2.22792
1 1 3.70293 1.49077 1.9976
2 1 5.79051 0.278108 2.51942
5 1 3.21225 2.76257 2.16603
16 1 4.16057 -0.180765 5.27573
10 1 4.90999 1.85528 6.64376
26 1 5.84812 0.374456 8.2538
9 1 5.55699 2.85199 7.41998
18 1 3.79499 1.1919 6.07025
25 1 3.13681 2.20192 9.50565
48 1 4.28137 4.92939 0.526173
44 1 5.6714 5.46638 2.32454
46 1 4.47204 4.83708 1.95571
8 1 3.98017 3.74919 2.79517
51 1 3.51545 5.79569 5.72401
56 1 5.06898 5.87781 5.75665
58 1 5.83908 4.65894 5.64727
24 1 5.39877 2.8957 8.78176
78 1 5.05613 4.61385 11.7412
68 1 3.95617 4.59752 9.6023
69 1 4.78704 5.37471 10.4596
37 1 5.90508 3.52495 11.8498
27 1 4.10053 3.23241 9.32058
47 1 5.46284 7.90752 2.29844
82 1 4.9915 8.95733 1.36225
49 1 5.96094 6.68408 1.70962
55 1 5.99195 7.12342 5.64231
73 1 4.09321 7.53754 8.50378
62 1 5.57363 7.39207 8.19041
102 1 4.04983 8.96122 9.04668
61 1 5.69824 8.18393 6.72459
72 1 5.24572 6.7519 10.4732
81 1 5.41996 7.96683 11.273
88 1 3.68639 11.4493 2.17781
85 1 3.0737 10.4622 0.933191
90 1 3.657 9.1011 0.970937
94 1 5.47499 11.6329 5.26496
97 1 5.61352 10.2262 5.11309
87 1 3.30941 10.7242 3.41705
20 1 3.21814 11.4146 4.62137
93 1 5.5195 9.60454 6.456
100 1 5.27602 10.4648 7.62629
106 1 4.85367 11.8022 7.99582
101 1 5.28894 9.71322 8.79905
33 1 3.4899 12.1647 8.59911
98 1 3.17131 11.2082 9.77824
99 1 2.92186 9.81218 9.60682
15 1 6.64307 -0.0252095 4.82248
19 1 6.67251 0.482951 3.49696
123 1 9.05501 0.811984 5.08534
121 1 7.98821 -0.0771761 5.44462
129 1 8.18924 0.301735 9.29224
137 1 6.8458 0.761107 9.08912
134 1 6.91977 2.91531 10.9889
147 1 7.87873 4.99096 2.30645
139 1 9.06966 5.64864 2.00056
156 1 6.67395 4.20888 4.52633
150 1 7.9962 3.5151 4.79506
141 1 6.7323 4.80199 3.15157
151 1 8.39485 5.11395 7.12732
166 1 7.26217 4.54195 7.7461
23 1 6.14175 4.0371 6.92236
165 1 8.39706 4.81853 9.98197
35 1 6.65418 3.09044 9.57231
136 1 9.0264 4.18027 11.1759
130 1 8.25308 2.99448 11.5322
167 1 7.53456 4.10071 9.10887
171 1 8.05742 8.53688 1.43606
140 1 7.70495 7.89134 0.287502
142 1 8.3594 7.78584 2.78678
145 1 6.74045 6.8495 0.494814
144 1 7.27131 7.61385 3.71404
148 1 7.30494 7.12745 4.99985
154 1 8.57865 6.9476 5.58179
92 1 6.10284 8.38692 3.57315
153 1 8.3401 6.49253 6.97695
162 1 8.58076 7.60785 7.84385
188 1 7.93948 8.49963 11.2741
160 1 7.86741 7.32747 10.0634
74 1 6.42417 6.91317 9.45813
169 1 7.34673 9.77216 1.60846
91 1 6.05362 9.78637 0.845152
170 1 7.27807 10.3996 2.85193
174 1 8.51717 10.9824 3.30048
95 1 6.08854 9.87125 3.80799
177 1 8.49668 9.81919 6.39954
178 1 8.52313 11.2398 6.4202
180 1 7.77628 10.0454 8.67974
181 1 8.40482 11.4604 8.64149
184 1 8.16762 9.22727 7.65135
104 1 6.47503 9.66767 9.51473
191 1 9.07133 9.79126 11.2344
110 1 6.51078 9.15024 10.9459
86 1 6.11622 10.1709 11.9029
115 1 10.8193 1.5836 2.05634
112 1 10.1398 1.7814 0.817328
116 1 12.1229 0.988856 2.60059
114 1 9.14337 2.18031 0.0344302
111 1 10.0816 1.87925 3.281
120 1 10.1593 0.802518 4.22611
126 1 11.1828 -0.0551019 4.40283
127 1 10.1946 0.357223 7.92504
189 1 11.5095 -0.131107 7.52449
131 1 9.45696 1.15933 9.0635
135 1 9.99906 2.48121 9.29868
105 1 11.9503 -0.0867411 10.6396
119 1 10.0904 5.09742 1.08439
117 1 11.1237 4.38221 1.76652
157 1 11.3588 5.44176 3.92543
124 1 9.36063 3.43156 4.95855
128 1 9.99464 3.14539 3.74361
146 1 10.844 4.20298 3.31171
161 1 10.3005 5.02737 8.40657
155 1 9.71771 4.57969 7.16853
133 1 11.5218 4.47471 8.89349
125 1 10.3234 3.9067 6.0493
122 1 11.7591 3.57796 6.06359
163 1 9.43051 5.6204 9.30414
132 1 11.394 3.01941 9.55249
113 1 9.74615 4.93383 12.1401
143 1 9.48492 6.79945 2.64187
168 1 11.8063 7.80243 0.801748
149 1 9.7584 7.7591 5.64186
138 1 10.4807 6.62344 3.62146
152 1 10.9117 6.96196 6.53288
158 1 11.0035 7.49441 10.7317
164 1 10.1608 8.04952 9.75821
79 1 11.2513 7.30547 12.1149
159 1 9.09375 7.17059 9.28392
172 1 10.3353 9.96906 4.71524
173 1 11.2522 10.9874 5.06754
179 1 9.69432 10.2787 3.48867
175 1 9.58174 9.14555 5.59188
182 1 11.252 9.73762 8.25537
186 1 11.5172 10.8392 7.33332
176 1 12.0876 10.6266 6.13328
185 1 9.18961 11.7839 7.49411
187 1 10.2045 10.2505 10.4893
190 1 11.083 11.2959 10.953
183 1 10.4585 9.42931 9.34682
ITEM: TIMESTEP
5000
ITEM: NUMBER OF ATOMS
191
ITEM: BOX BOUNDS pp pp pp
-1.4969394304821834e-01 1.2149693943048279e+01
-1.4969394304821834e-01 1.2149693943048279e+01
-1.4969394304821834e-01 1.2149693943048279e+01
ITEM: ATOMS id type x y z
5 1 2.97319 2.56585 1.94039
12 1 1.06516 0.309056 4.87821
118 1 0.186776 0.382383 3.72103
13 1 1.25941 1.1457 6.00398
17 1 2.52985 1.92719 5.85256
31 1 2.69514 0.957457 8.68601
32 1 1.2696 0.886133 8.48998
11 1 0.463409 0.819815 7.30577
28 1 0.422821 0.904623 9.69999
29 1 0.109233 2.1508 10.1562
30 1 1.08338 2.69733 10.9734
38 1 2.35123 2.03306 10.9496
36 1 2.59197 0.751571 11.5718
7 1 0.0945129 4.72292 1.42801
6 1 0.820631 3.89466 0.699064
45 1 0.989809 5.56015 2.15198
4 1 1.7159 3.00492 1.36974
14 1 2.14323 3.33184 5.87964
63 1 0.403844 5.05722 8.72749
22 1 0.738385 3.48889 6.03453
34 1 0.938728 3.93111 11.6167
64 1 1.34329 5.11787 11.0128
66 1 1.49415 4.97776 9.61939
70 1 2.7527 5.2926 9.16902
39 1 0.657505 8.21749 1.00254
42 1 1.8187 7.8009 1.71193
43 1 3.00095 7.76654 0.838029
54 1 2.43476 6.81962 5.6376
50 1 2.30681 8.56442 3.82749
52 1 1.05118 6.43838 5.72888
40 1 1.05798 6.45334 3.22617
60 1 2.83334 8.1303 5.06684
41 1 1.88162 7.4439 3.03658
53 1 0.36243 6.15988 4.48419
59 1 -0.036414 6.8133 6.6489
67 1 1.61217 7.25082 8.39872
71 1 0.502621 6.33633 7.89962
108 1 1.48993 8.62941 8.82785
77 1 2.01803 6.22389 11.5775
76 1 2.25681 7.6085 11.8577
75 1 1.58837 8.76498 11.301
89 1 1.64056 10.3675 0.925742
84 1 1.18102 10.2056 2.30823
80 1 1.04853 9.30121 0.162239
83 1 2.26344 9.97564 3.31951
21 1 1.94148 11.4449 5.16118
96 1 1.12282 10.4913 5.73405
109 1 0.39615 9.26969 8.35326
107 1 2.00351 9.14506 10.034
3 1 4.41671 0.274729 1.96111
1 1 3.55323 1.37385 1.84581
2 1 5.88374 0.320009 2.28415
16 1 4.32265 0.134899 5.21328
18 1 3.78569 1.3079 5.83195
10 1 4.73435 1.98048 6.71772
26 1 5.79751 0.306125 8.50356
24 1 5.2891 2.9283 8.96065
9 1 5.4516 2.9074 7.55717
25 1 3.0721 2.1153 9.69053
48 1 4.1764 4.89419 0.692568
44 1 5.55237 5.42191 2.54905
46 1 4.28899 4.71154 2.04769
8 1 3.63114 3.62638 2.62078
51 1 3.41995 5.75869 5.58123
56 1 5.04272 5.90184 5.66117
58 1 5.85743 4.6381 5.73771
57 1 2.92333 4.45131 5.55292
78 1 4.89401 4.59396 11.7957
68 1 3.90493 4.67434 9.62432
69 1 4.7042 5.33472 10.5909
27 1 3.94818 3.24067 9.45753
37 1 5.79155 3.53225 11.9415
47 1 5.39246 7.94731 2.24926
49 1 5.81081 6.72236 1.73365
82 1 5.04382 8.9829 1.30567
90 1 3.7297 8.9968 1.05958
55 1 5.96918 7.12432 5.64806
73 1 4.14528 7.5567 8.59147
62 1 5.60339 7.46983 8.1322
61 1 5.79988 8.08817 6.60703
65 1 2.95037 6.76018 8.76532
72 1 5.49573 6.48341 10.3487
81 1 5.34261 7.79541 11.1185
102 1 4.20937 8.97998 9.18688
88 1 3.69853 11.2474 2.01784
85 1 3.13805 10.3002 0.996169
94 1 5.76007 12.0285 5.23532
97 1 5.94896 10.5229 5.13988
87 1 3.40818 10.9502 3.48701
20 1 3.25547 11.5847 4.78632
93 1 5.67012 9.64085 6.42075
100 1 5.21534 10.4785 7.57833
106 1 4.82236 11.7907 7.98925
101 1 5.34046 9.79985 8.74326
33 1 3.54598 11.9708 8.65533
98 1 3.17404 11.1677 9.86151
99 1 3.24726 9.78532 9.80887
103 1 2.94061 11.8799 11.1205
114 1 8.86825 2.037 0.265219
15 1 6.95259 0.302565 4.6844
19 1 6.68405 0.557576 3.30565
137 1 6.9201 0.74029 9.03447
129 1 8.2459 0.36574 9.27806
147 1 7.83354 4.64348 2.59452
139 1 8.92478 5.53278 2.15722
156 1 6.66101 4.17992 4.71355
150 1 7.96081 3.65632 4.93502
141 1 6.57964 4.75256 3.36864
151 1 8.32502 5.33003 7.28273
166 1 7.21414 4.49413 7.75311
23 1 6.13702 3.97738 6.95551
165 1 8.4918 4.83975 9.96828
136 1 8.84353 4.11987 11.2573
35 1 6.52448 3.20463 9.71514
167 1 7.39109 4.3041 9.21772
134 1 6.81553 2.95443 11.1026
130 1 8.23059 2.8393 11.7113
171 1 8.17703 8.58395 1.3501
140 1 7.78189 7.83988 0.167704
145 1 6.84448 6.75833 0.69723
142 1 8.32137 7.81465 2.64186
144 1 7.26721 7.90109 3.58723
148 1 7.12726 7.31526 4.92447
154 1 8.33022 7.01287 5.59151
92 1 6.05682 8.64633 3.2901
153 1 8.33775 6.64147 6.92884
162 1 8.65393 7.59489 7.829
184 1 8.35481 9.05175 7.6162
188 1 7.82261 8.3375 11.0519
160 1 7.78793 7.3122 9.87213
74 1 6.43776 6.79268 9.27622
159 1 9.13474 7.07688 9.16097
169 1 7.25976 9.7058 1.62435
91 1 6.08862 9.77244 0.770906
170 1 7.32963 10.4539 2.79103
174 1 8.57462 11.1232 2.91614
121 1 8.09247 12.1496 5.46941
95 1 6.38891 9.99693 3.86368
177 1 8.70518 9.61711 6.29197
178 1 8.54012 11.0089 6.32808
180 1 7.77248 9.98544 8.62451
181 1 8.37161 11.2636 8.77274
104 1 6.5754 9.67037 9.41078
86 1 6.00891 10.1551 11.6761
110 1 6.47115 9.01366 10.7874
115 1 10.757 1.55367 2.09456
112 1 9.89534 1.43131 0.918535
116 1 12.0746 0.802826 2.38982
111 1 10.3207 2.02066 3.4274
120 1 10.1464 0.93297 4.38672
126 1 11.2121 -0.0468258 4.38414
123 1 9.21408 0.739123 5.55006
127 1 10.1475 0.154595 7.81962
189 1 11.4675 0.0854628 7.54482
131 1 9.50674 1.01774 8.8234
105 1 11.8486 -0.0875941 10.0782
135 1 10.2134 2.20711 9.24286
119 1 9.99246 5.00623 1.31229
117 1 11.1626 4.61898 2.01562
113 1 9.79197 4.55393 -0.00873635
157 1 11.3061 5.81563 4.09639
124 1 9.37901 3.68334 5.02734
128 1 10.224 3.48203 3.8783
146 1 11.1606 4.44852 3.36106
161 1 10.2543 4.86159 8.42046
155 1 9.65331 4.75634 7.13141
125 1 10.2951 4.04563 6.10991
122 1 11.6977 3.86163 6.18369
133 1 11.5352 4.3117 8.85835
163 1 9.54 5.63797 9.38697
132 1 11.4443 2.91774 9.35346
168 1 11.5937 7.71493 0.840315
143 1 9.22078 6.7882 2.85964
149 1 9.85161 7.49759 5.20738
138 1 10.1864 6.76349 3.90039
152 1 11.0043 6.96681 6.05641
158 1 11.0093 7.33791 10.6825
164 1 10.2689 7.88779 9.61567
79 1 10.9135 7.46425 12.0053
172 1 10.3273 9.91207 4.49586
173 1 11.1614 10.9023 5.05157
179 1 9.6216 10.3901 3.32626
175 1 9.52551 8.98654 5.34366
182 1 11.4073 9.8442 8.2501
186 1 11.6395 10.7989 7.2828
185 1 9.19401 11.3803 7.53875
176 1 12.1309 10.5159 6.04294
187 1 10.0952 10.1418 10.3171
190 1 10.7773 11.4379 10.1339
183 1 10.4896 9.23134 9.23977
191 1 8.95957 9.46949 11.054
ITEM: TIMESTEP
6000
ITEM: NUMBER OF ATOMS
191
ITEM: BOX BOUNDS pp pp pp
-1.5702544328365869e-01 1.2157025443283727e+01
-1.5702544328365869e-01 1.2157025443283727e+01
-1.5702544328365869e-01 1.2157025443283727e+01
ITEM: ATOMS id type x y z
116 1 -0.0491752 1.22356 2.45045
4 1 1.88354 2.86996 1.61488
12 1 1.11116 0.497169 4.72906
118 1 0.178221 0.553408 3.71902
13 1 1.3119 1.14232 5.96387
31 1 2.65198 0.859619 8.66528
32 1 1.16085 0.654618 8.54704
11 1 0.442768 0.680587 7.2569
17 1 2.47145 1.98068 6.13215
28 1 0.253729 0.816907 9.66735
29 1 0.123199 2.15253 10.1309
30 1 1.2698 2.60418 10.9388
38 1 2.63502 1.92798 10.8615
36 1 2.81588 0.570097 11.4346
7 1 0.127272 4.49444 1.6415
6 1 0.866169 3.58004 0.850241