ITEM: TIMESTEP
1000
ITEM: NUMBER OF ATOMS
191
ITEM: BOX BOUNDS pp pp pp
0.0000000000000000e+00 1.2000000000000000e+01
0.0000000000000000e+00 1.2000000000000000e+01
0.0000000000000000e+00 1.2000000000000000e+01
ITEM: ATOMS id type x y z
12 1 1.20509 0.848646 4.8824
1 1 2.45416 2.21262 3.44646
118 1 0.0568909 0.931156 4.21542
31 1 2.7963 1.20012 8.59879
32 1 1.33362 1.11411 8.47168
11 1 0.524598 1.20419 7.34151
17 1 2.71238 2.40746 6.16634
13 1 1.38231 1.67759 6.10224
28 1 0.600435 1.06936 9.68613
29 1 0.380463 2.49177 10.0643
30 1 1.54051 2.88833 10.6729
38 1 2.76966 2.1392 10.5977
4 1 2.18611 3.42645 1.49308
6 1 1.37529 4.1638 0.681185
7 1 0.316389 4.7799 1.23673
5 1 2.72351 3.38718 2.80547
53 1 0.358511 5.83537 4.1516
14 1 2.48962 3.77126 6.47623
22 1 1.04066 4.12647 6.92577
63 1 0.861504 4.89394 8.19573
34 1 1.60511 4.1806 11.3394
64 1 1.84804 5.17285 10.4568
66 1 1.97643 4.87993 9.13738
39 1 0.181589 8.50532 0.712513
43 1 2.65505 8.15867 0.868042
42 1 1.41328 7.99508 1.5577
45 1 0.410238 6.0196 1.6437
40 1 0.607622 6.50916 2.98891
41 1 1.37971 7.70322 2.91852
54 1 2.3679 6.52629 5.21292
50 1 2.14686 8.46843 3.69532
52 1 1.04645 6.21113 5.25484
60 1 2.43505 7.90596 4.88676
59 1 0.319578 6.54721 6.41356
67 1 1.82448 7.31926 8.10585
71 1 0.824954 6.39916 7.65354
108 1 1.50378 8.72625 8.5489
75 1 1.63839 8.73584 10.9
76 1 2.39605 7.75422 11.4558
77 1 2.36185 6.3648 11.1126
89 1 1.68557 10.4378 0.778156
84 1 1.26087 10.293 2.26055
96 1 1.39937 10.5244 5.80047
21 1 1.92503 11.6793 5.0829
83 1 1.97272 9.86486 3.45811
109 1 0.460584 9.13924 7.92927
107 1 1.96788 9.23301 9.68906
80 1 0.964113 9.47731 11.8748
3 1 3.46182 1.23958 3.5408
16 1 4.12741 0.164967 5.50129
2 1 4.94593 1.47411 3.18049
9 1 5.79569 2.82726 7.153
24 1 5.70492 2.43076 8.65892
26 1 5.83625 0.933983 8.58776
10 1 5.33926 2.06308 6.16372
18 1 3.95423 1.52412 6.0336
25 1 3.47206 2.22466 9.36298
36 1 3.1563 1.05003 11.3995
48 1 4.33373 4.65548 0.709691
44 1 5.99016 5.22315 2.44868
46 1 4.83482 4.57961 2.03733
8 1 3.91788 4.06314 2.96916
58 1 5.89245 4.77236 5.62939
56 1 5.05263 5.94244 5.47293
51 1 3.61934 5.79543 5.77172
70 1 3.40603 5.25056 8.37877
57 1 3.29911 4.88631 6.83742
78 1 5.12797 4.29346 11.5245
68 1 4.40579 4.42649 9.42396
69 1 5.059 5.21573 10.3426
27 1 4.47806 3.0505 9.22505
47 1 5.19546 7.94796 2.43487
82 1 4.90455 8.78538 1.39948
92 1 5.0144 8.61295 3.70179
55 1 5.95341 7.18716 5.53858
73 1 4.19161 7.74413 8.55678
62 1 5.53684 7.49362 7.95057
65 1 3.19209 6.8109 8.4114
61 1 5.63671 8.06901 6.60218
72 1 5.55993 6.5066 10.3029
81 1 5.54413 7.76087 11.0694
88 1 3.49987 11.0428 2.1632
85 1 3.16455 10.4098 1.00517
91 1 5.91697 9.71594 1.04399
90 1 3.67653 9.11918 1.0001
94 1 5.51007 11.7138 5.47563
97 1 5.54044 10.2859 5.25334
87 1 3.11333 10.7168 3.43176
20 1 3.18504 11.8843 4.2963
95 1 5.89847 9.73487 4.04418
93 1 5.64775 9.60237 6.45837
100 1 5.39615 10.4731 7.59658
101 1 5.51693 9.71445 8.84227
106 1 4.93343 11.8978 7.96221
33 1 3.59975 11.9983 8.55921
98 1 3.50555 11.1841 9.68144
103 1 3.22428 11.7935 10.9441
99 1 3.27887 9.79207 9.59418
102 1 4.32834 9.07969 9.01661
114 1 8.60925 1.0636 0.341457
15 1 6.28686 1.03729 5.36838
19 1 6.14573 1.31933 3.9212
121 1 7.76238 0.614062 5.91285
128 1 8.88866 2.97665 3.70562
129 1 8.35478 0.18746 9.37563
130 1 8.26103 2.13424 11.4211
137 1 7.02759 0.504277 9.32774
134 1 6.96563 2.54662 10.8961
35 1 6.87822 2.8466 9.43909
147 1 8.12484 3.78741 2.81579
139 1 8.95702 4.71955 2.11283
141 1 6.86754 4.534 3.29409
150 1 8.14886 4.52859 5.47536
156 1 6.87198 4.6036 4.71775
151 1 8.27125 5.07366 6.80782
166 1 7.22697 4.60737 7.64401
23 1 6.11789 4.13615 6.99852
167 1 7.57641 4.01855 8.90824
165 1 8.33637 4.89564 9.7276
37 1 6.09022 3.28999 11.648
49 1 6.32647 6.66491 2.15676
140 1 7.99375 7.68454 0.383597
142 1 8.58072 7.38481 2.5869
145 1 6.96274 6.67636 0.681379
171 1 8.11027 8.45739 1.63405
144 1 7.31434 7.04926 3.2988
148 1 7.18411 7.1601 4.73754
154 1 8.35935 7.1502 5.53352
153 1 8.1698 6.55922 6.73473
162 1 8.58165 7.49694 7.74916
184 1 8.14193 8.93666 7.51019
188 1 7.99517 8.26872 11.0671
74 1 6.48352 6.90777 9.14608
160 1 7.81743 7.2395 9.89896
169 1 7.09657 9.53003 1.87342
174 1 7.97704 10.9841 3.56656
170 1 6.93637 10.1165 3.21665
177 1 8.34338 9.55504 6.12299
178 1 8.10362 11.1346 6.34415
180 1 7.89147 9.70405 8.60484
181 1 8.60636 10.9521 8.71045
185 1 8.91145 11.4014 7.40967
104 1 6.73251 9.58153 9.41521
110 1 6.49943 9.08283 10.8292
86 1 6.07477 10.1283 11.7812
115 1 10.3233 1.23323 2.44296
116 1 11.6482 0.993539 2.82226
112 1 9.70433 1.22206 1.2498
111 1 9.4857 1.66562 3.53701
126 1 10.9251 0.207048 4.75638
120 1 9.76984 1.11383 4.82804
123 1 9.07273 1.35593 5.95414
127 1 9.85358 0.871564 7.35898
189 1 11.3665 0.497339 7.24559
131 1 9.26943 1.27343 8.8753
135 1 9.92736 2.45712 9.72437
136 1 9.31994 2.91918 10.9834
105 1 11.8296 0.0101488 10.1355
119 1 10.0568 4.12402 1.1601
117 1 11.2913 4.10232 1.87838
157 1 11.3328 4.9189 4.17809
124 1 9.18021 3.70881 5.01453
146 1 11.3855 3.97031 3.30822
138 1 10.2186 5.74187 3.89366
161 1 10.2777 4.94223 8.31128
155 1 9.72347 4.77316 7.05922
133 1 11.4486 4.36918 8.8939
122 1 11.7791 3.7662 6.22739
125 1 10.4313 4.01175 6.05778
163 1 9.44619 5.61201 9.18789
113 1 9.86272 3.82653 11.855
132 1 11.2015 3.12199 9.46298
143 1 9.41135 6.11047 2.82495
168 1 11.139 7.60473 0.563201
149 1 9.69535 7.6531 5.41856
152 1 10.827 7.13612 6.19421
159 1 9.168 7.09184 8.9772
158 1 11.2905 7.02504 10.2119
164 1 10.4181 7.84684 9.49228
79 1 11.2299 6.74242 11.5198
172 1 10.0074 10.0659 4.56232
173 1 11.0291 10.7553 5.07982
175 1 9.42791 9.05859 5.30838
179 1 9.28849 10.6904 3.58403
182 1 11.2861 9.8532 8.11419
186 1 11.4828 11.032 7.29613
176 1 11.9937 10.5963 6.03074
187 1 10.2157 9.88624 10.5578
190 1 10.9942 11.1135 10.7664
183 1 10.5117 9.3033 9.2034
191 1 9.03 9.33326 11.045
ITEM: TIMESTEP
2000
ITEM: NUMBER OF ATOMS
191
ITEM: BOX BOUNDS pp pp pp
-1.1161345366660930e-01 1.2111613453666598e+01
-1.1161345366660930e-01 1.2111613453666598e+01
-1.1161345366660930e-01 1.2111613453666598e+01
ITEM: ATOMS id type x y z
5 1 2.81566 2.73022 2.25288
4 1 1.73697 2.77039 1.31155
12 1 1.24071 0.645843 4.75957
118 1 0.198923 0.383067 3.88479
13 1 1.32883 1.37585 6.05451
31 1 2.69498 0.870847 8.67181
32 1 1.19545 0.744044 8.56044
11 1 0.542259 0.888358 7.2673
17 1 2.48227 2.16626 6.14738
28 1 0.195619 0.976119 9.66427
38 1 2.71095 2.01448 10.7643
30 1 1.44821 2.61467 10.9346
29 1 0.260829 2.30914 10.1809
7 1 0.407361 4.79616 1.38708
6 1 1.08568 3.76815 0.723748
45 1 1.14909 5.84195 2.05012
53 1 0.3273 6.11769 4.30698
14 1 2.23373 3.56897 6.63897
22 1 0.895545 3.83583 7.1141
63 1 0.660173 4.67337 8.3154
34 1 1.44751 3.92764 11.5254
64 1 1.77817 5.09795 10.6242
66 1 1.95469 4.80417 9.14895
39 1 0.249501 8.67951 0.953051
43 1 2.35192 8.09001 0.656683
42 1 1.36021 8.08961 1.68294
41 1 1.64991 7.78179 2.94262
54 1 2.36417 6.65269 5.57376
50 1 2.11171 8.67994 3.88676
52 1 0.951435 6.40643 5.60449
60 1 2.59033 7.93255 5.12922
40 1 0.94224 6.5484 3.26596
108 1 1.35881 8.40959 8.70126
67 1 1.74149 7.13622 8.17483
71 1 0.661146 6.24163 7.88947
59 1 -0.112258 6.61505 6.68019
77 1 2.02132 6.29041 11.2378
76 1 1.83021 7.62109 11.581
75 1 1.27571 8.84013 11.0642
89 1 1.61453 10.6151 0.626992
84 1 1.39087 10.4554 2.11611
80 1 0.782208 9.64867 -0.0300551
83 1 2.31968 9.951 3.3131
21 1 1.94578 11.6798 5.06074
96 1 1.25296 10.5555 5.53971
176 1 -0.117414 10.6343 5.88982
109 1 0.286552 9.02501 8.06796
107 1 1.87255 9.12181 9.7677
3 1 5.04591 1.29587 2.04144
1 1 3.80774 1.79459 2.32423
16 1 4.24888 0.0163793 5.53459
18 1 3.89699 1.38809 5.88157
26 1 5.8331 0.850714 8.99077
24 1 5.61443 2.35061 8.61443
10 1 4.96465 2.11753 6.2994
9 1 5.63912 2.85921 7.29162
25 1 3.18498 2.09732 9.51386
36 1 2.89698 0.885537 11.6922
48 1 4.08984 4.94549 0.678191
8 1 3.34437 4.026 2.74057
46 1 4.36561 4.73189 2.03678
44 1 5.49176 5.23221 2.67793
56 1 4.98481 5.7726 5.63748
51 1 3.56571 5.88002 5.87383
58 1 5.85115 4.50298 5.71933
70 1 3.12868 5.16706 8.36111
57 1 3.18382 4.72981 6.82888
78 1 4.79134 4.66731 11.5591
68 1 4.23266 4.56464 9.25615
69 1 4.87257 5.26348 10.3274
37 1 5.71045 3.49388 11.6558
27 1 4.33544 3.01765 9.21265
47 1 5.1015 7.73914 2.31192
82 1 4.64187 8.79161 1.32666
92 1 5.0293 8.29445 3.61623
55 1 5.80992 7.00334 5.45784
73 1 4.17024 7.75223 8.5101
62 1 5.54491 7.49761 8.09971
61 1 5.72143 8.00226 6.74999
65 1 3.16831 6.73214 8.40984
72 1 5.42221 6.5509 10.0329
81 1 5.51638 7.55402 10.9886
102 1 4.30861 9.05094 9.19007
88 1 3.56919 11.3105 1.92265
85 1 3.13392 10.7799 0.47736
91 1 5.66694 9.6003 1.03849
90 1 3.42509 9.09566 0.660299
87 1 3.25861 10.9735 3.28392
94 1 5.56377 11.745 5.37101
20 1 3.2925 11.5819 4.61452
97 1 5.62194 10.2932 5.26083
95 1 5.73596 9.58915 3.97799
93 1 5.4366 9.61121 6.57997
100 1 5.32777 10.7329 7.83204
101 1 5.44082 9.81532 8.884
33 1 3.59078 12.0048 9.0129
106 1 4.73617 12.0267 8.25425
98 1 3.19743 11.0436 10.0462
103 1 3.28377 11.6928 11.4794
99 1 3.14519 9.64618 9.84045
86 1 5.90239 9.92136 11.8888
114 1 8.6775 1.87807 0.426173
2 1 6.27597 1.26127 2.70255
15 1 6.9287 0.138431 5.05736
19 1 6.96063 0.590609 3.72028
121 1 8.15458 0.0596344 5.75632
129 1 8.14874 0.298961 9.56875
130 1 8.13345 2.55635 11.4541
137 1 6.82487 0.442545 9.95656
134 1 6.75284 2.79235 11.0357
147 1 7.90929 4.63697 2.40018
139 1 9.11085 5.40455 1.95006
141 1 6.6088 4.52383 3.27469
150 1 8.22217 3.71124 4.94215
156 1 6.89536 4.15695 4.77537
151 1 8.53494 5.2013 6.96668
166 1 7.47724 4.58917 7.74431
23 1 6.25221 4.08453 7.04736
165 1 8.67099 4.45344 9.84076
167 1 7.55152 4.14399 9.07089
35 1 6.65247 3.21694 9.55983
171 1 7.8075 8.3609 1.54107
140 1 7.56474 7.69148 0.278051
142 1 8.30679 7.49396 2.65832
145 1 6.71487 6.57697 0.833997
49 1 6.01067 6.5491 2.2657
144 1 7.21426 7.02211 3.3885
148 1 7.00293 6.94203 4.78785
154 1 8.28893 7.01999 5.45743
153 1 8.31468 6.62174 6.8124
162 1 8.58302 7.60379 7.79217
184 1 8.33255 8.98056 7.56619
188 1 7.76348 8.39811 11.2396
160 1 7.63978 7.29313 9.80259
74 1 6.41192 6.93916 9.11895
110 1 6.54705 9.09179 10.8853
159 1 9.02636 6.95137 9.09574
169 1 6.82116 9.39061 1.80945
174 1 8.03967 10.694 3.44225
170 1 6.90185 9.9912 3.24872
177 1 8.90849 9.61304 6.38056
178 1 8.86424 11.1168 6.39426
180 1 7.89226 9.88022 8.70057
181 1 8.38506 11.4167 8.71207
104 1 6.72492 9.54942 9.50847
115 1 10.7537 1.43777 2.09448
112 1 9.72915 1.41025 1.0064
116 1 12.0802 0.927095 2.58093
111 1 10.1535 1.98999 3.37169
126 1 11.2063 0.0993054 4.50435
120 1 10.0867 1.07673 4.44401
123 1 9.1112 1.08865 5.36523
127 1 10.139 0.598109 7.83383
189 1 11.5031 0.186102 7.41903
131 1 9.36536 1.40567 8.98654
135 1 9.93467 2.45176 9.76449
105 1 11.6136 -0.0932918 10.1901
119 1 9.97575 4.74982 1.1064
117 1 11.2405 4.609 1.76295
157 1 11.2161 5.64669 3.96692
124 1 9.72801 3.72513 4.99363
128 1 10.4597 3.34194 3.81287
146 1 11.1285 4.45223 3.22975
161 1 10.4847 5.11903 8.42972
155 1 9.94297 4.86623 7.12555
122 1 11.9003 3.71635 6.29991
125 1 10.5265 4.04537 6.11202
133 1 11.5922 4.3469 8.9934
163 1 9.47051 5.4911 9.30736
136 1 9.19583 3.42168 10.7874
113 1 9.65951 4.34421 11.9575
132 1 11.3412 2.98777 9.67812
143 1 9.24473 6.50521 2.74465
168 1 11.3407 7.93939 0.645765
149 1 9.65382 7.52025 5.17635
138 1 10.0715 6.71069 3.74507
152 1 10.9889 7.16479 6.26931
158 1 11.1312 7.5557 10.4885
164 1 10.3536 7.89592 9.34163
79 1 10.8678 7.45419 11.7557
172 1 10.3023 10.0073 4.50898
173 1 11.1881 11.0274 4.90369
179 1 9.35939 10.5162 3.6765
175 1 9.66353 9.04029 5.29975
182 1 11.5024 9.93967 8.08863
186 1 11.6058 11.0023 7.26271
183 1 10.4962 9.33918 8.91332
185 1 9.30601 11.6215 7.70166
187 1 10.2003 9.97279 10.2169
190 1 10.6675 11.2587 10.3373
191 1 9.03584 9.44512 10.917
ITEM: TIMESTEP
3000
ITEM: NUMBER OF ATOMS
191
ITEM: BOX BOUNDS pp pp pp
-2.1642738913061102e-01 1.2216427389130585e+01
-2.1642738913061102e-01 1.2216427389130585e+01
-2.1642738913061102e-01 1.2216427389130585e+01
ITEM: ATOMS id type x y z
5 1 2.65577 2.87347 2.49201
4 1 1.68739 2.55778 1.49382
12 1 0.952382 0.645853 5.02824
118 1 0.20974 0.607523 3.7364
13 1 1.0714 1.34063 6.20364
32 1 1.21029 0.611019 8.62893
11 1 0.451591 0.779659 7.36905
17 1 2.20159 2.25125 6.25657
31 1 2.69188 0.574049 8.71242
28 1 0.184017 0.579864 9.83893
38 1 2.48594 1.68536 10.8425
30 1 1.24213 2.45465 11.0018
29 1 0.0855267 1.96457 10.2282
7 1 0.111945 4.46671 1.25308
6 1 0.874784 3.41719 0.635382
45 1 0.918879 5.61389 1.49869
53 1 0.221774 5.94185 3.97748
14 1 1.95358 3.68463 6.7645
22 1 0.618366 4.1393 7.2682
63 1 0.249945 4.34309 8.59136
34 1 1.18011 3.67431 11.687
64 1 1.41455 4.98557 10.9841
66 1 1.22869 4.75931 9.47555
39 1 0.317578 8.31734 0.457691
42 1 1.46623 8.15639 1.3136
41 1 1.71047 7.62641 2.58433
43 1 2.78711 8.24532 0.563468
40 1 1.02192 6.36845 2.74377
54 1 2.39243 6.62249 5.17303
50 1 2.16775 8.64294 3.63552
52 1 0.960642 6.1099 5.26072
60 1 2.38853 8.0138 4.82064
108 1 1.82298 8.65022 8.60572
67 1 2.01814 7.39947 8.12684
71 1 0.859649 7.07432 7.45677
59 1 0.0235235 6.65961 6.30598
77 1 2.08772 6.16512 11.4673
76 1 2.37782 7.60997 11.6634
75 1 1.5052 8.70658 10.9599
107 1 2.23222 9.07795 9.8343
89 1 0.889062 10.4444 0.608879
84 1 1.04232 10.3183 2.00549
96 1 1.10453 10.8121 5.47615
21 1 1.77807 11.83 4.91086
83 1 1.98624 9.97334 3.08326
109 1 0.713793 9.3696 8.00976
80 1 0.76863 9.423 11.9678
1 1 3.61731 1.77328 2.26725
3 1 4.85151 1.39078 2.49329
16 1 4.00079 0.124083 5.1631
18 1 3.60973 1.70996 5.78645
2 1 5.95141 1.39292 3.18531
10 1 4.63329 2.39096 6.36448
24 1 5.19422 2.64803 8.65502
26 1 5.90873 0.0325105 8.74238
25 1 3.00305 1.86937 9.58303
37 1 4.96016 2.66231 11.4776
36 1 3.00876 0.500013 11.3799
48 1 4.29948 4.62726 0.616896
8 1 3.24862 4.13496 2.72751
46 1 4.24019 4.88322 1.96692
44 1 5.31925 5.74766 2.51963
56 1 4.95035 6.00204 5.55451
51 1 3.47218 5.9196 5.73202
58 1 5.87841 4.8433 5.6375
70 1 3.45515 5.36459 8.28754
9 1 5.43286 2.91662 7.24785
57 1 2.95532 4.73524 7.05374
78 1 4.4718 4.16596 11.5384
27 1 3.86686 2.96882 9.13322
69 1 4.3901 4.98423 10.3742
68 1 3.77773 4.45705 9.2648
47 1 4.90591 8.22598 2.23273
49 1 5.51966 6.97126 1.79305
92 1 4.84562 8.67506 3.578
55 1 5.908 7.21808 5.65128
65 1 3.26069 6.82974 8.46875
62 1 5.7162 7.46372 8.18306
61 1 5.83869 8.05549 6.78771
73 1 4.3385 7.7002 8.65105
102 1 4.57701 8.88834 9.37394
81 1 5.74648 6.58725 11.6796
72 1 5.41289 6.21301 10.3096
88 1 3.19345 11.3376 1.64939
85 1 3.27359 10.7904 0.328322
90 1 3.63734 9.38036 0.444108
82 1 4.90203 9.19213 1.19747
97 1 5.50559 10.4604 5.29602
94 1 5.39502 11.9727 5.30312
95 1 5.75286 9.82378 3.99924
20 1 3.06185 11.8536 4.31207
87 1 2.97691 11.0407 3.06277
93 1 5.63049 9.70233 6.56621
100 1 5.43387 10.4404 7.75498
106 1 4.8928 11.6613 8.3123
101 1 5.71553 9.5558 8.868
33 1 3.52258 11.7816 8.77392
98 1 3.58025 11.0668 10.2173
103 1 3.24769 11.5791 11.5386
99 1 3.49116 9.63063 10.0071
114 1 8.37897 2.20937 0.489887
123 1 9.00385 0.797136 5.17752
19 1 6.68012 1.07951 4.28516
15 1 6.79931 0.0314323 5.23757
129 1 8.38293 0.0940608 9.62907
134 1 6.27774 2.43879 11.0242
130 1 7.47622 2.30602 11.9588
137 1 7.0104 0.33244 9.61831
147 1 7.75857 4.83982 2.35195
139 1 8.8759 5.43317 1.88302
141 1 6.66327 5.1172 3.15611
150 1 8.07472 4.22994 4.85952
156 1 6.79504 4.68197 4.4729
151 1 8.52923 5.10743 7.19324
166 1 7.27023 4.5042 7.74694
23 1 6.11076 4.12274 6.85971
167 1 7.38076 3.94325 9.09089
165 1 8.57965 4.48086 9.94125
35 1 6.29041 2.9212 9.5902
171 1 8.00275 8.47803 1.51152
140 1 7.5578 7.78883 0.310336
142 1 8.36599 7.74119 2.56222
145 1 6.26125 6.97554 0.456328
144 1 7.42601 7.85215 3.63898
148 1 7.23306 7.33997 4.99199
154 1 8.53792 6.96871 5.65673
153 1 8.48654 6.55187 6.96613
162 1 8.8362 7.55639 7.98173
184 1 8.75863 9.03889 7.76414
188 1 7.98223 8.11891 11.2796
160 1 7.68189 7.17253 10.1023
74 1 6.33564 6.98514 9.4431
159 1 8.90032 6.90792 9.26393
169 1 7.17831 9.75859 1.76203
91 1 6.08297 9.80902 0.858502
174 1 8.10188 10.9174 3.39487
170 1 6.9189 10.1876 3.10372
121 1 8.09683 12.1047 5.5934
181 1 8.67601 11.2291 8.94646
178 1 8.71563 11.2161 6.44808
180 1 8.27727 9.83426 8.92853
177 1 8.82386 9.6799 6.42937
104 1 6.97298 9.53774 9.49712
86 1 6.44356 10.2451 11.8698
110 1 6.93279 9.39347 10.8467
115 1 10.6883 1.75435 2.15716
112 1 9.65699 1.92414 1.206
116 1 11.9136 1.2395 2.305
111 1 10.3025 2.06325 3.53482
126 1 11.2864 0.047529 4.26624
120 1 10.2609 0.999828 4.4826
127 1 10.1296 0.510395 8.01122
189 1 11.5 0.266631 7.46527
135 1 9.92037 2.61703 10.0869
132 1 11.3241 2.86476 10.0181
131 1 9.55052 1.10315 9.3574
119 1 9.75749 4.70818 0.925965
117 1 11.1214 4.48112 1.69598
113 1 9.62074 3.99562 -0.225493
157 1 11.2502 5.75917 3.74178
124 1 9.52022 3.79198 5.08629
128 1 10.2082 3.38472 3.95715
146 1 10.8489 4.40193 3.15025
161 1 10.4133 4.9114 8.73647
155 1 9.79597 4.65848 7.41892
122 1 11.8462 3.91413 6.46345
125 1 10.4313 3.9854 6.17425
163 1 9.4065 5.57619 9.43625
136 1 9.17136 3.60264 10.8576
133 1 11.5129 4.1115 9.20016
168 1 11.7415 7.44911 0.173805
143 1 9.34458 6.68863 2.57966
149 1 9.89969 7.56184 5.19343
138 1 10.272 6.88966 3.77321
152 1 11.1129 7.13145 6.10157
158 1 11.7959 7.00073 10.2986
79 1 11.5344 6.61528 11.5822
164 1 11.6456 7.86656 9.27188
191 1 9.49616 9.05486 11.0081
172 1 10.3503 10.1939 4.47929
173 1 11.3111 11.0948 4.90601
176 1 12.2329 10.8296 5.9178
179 1 9.48586 10.7956 3.49153
175 1 9.81075 9.16735 5.45915
182 1 11.9134 10.158 8.21758
186 1 11.6867 11.2683 7.30116
185 1 9.26609 11.7328 7.70211
187 1 10.5748 9.81072 10.4754
190 1 11.2418 10.9438 10.8266
105 1 12.1467 12.0564 10.7272
183 1 11.344 9.29623 9.27672
ITEM: TIMESTEP
4000
ITEM: NUMBER OF ATOMS
191
ITEM: BOX BOUNDS pp pp pp
-1.7345824000381832e-01 1.2173458240003775e+01
-1.7345824000381832e-01 1.2173458240003775e+01
-1.7345824000381832e-01 1.2173458240003775e+01
ITEM: ATOMS id type x y z
12 1 0.832217 0.708546 4.83041
13 1 1.03667 1.52948 6.06642
32 1 1.33108 0.862047 8.41473
11 1 0.466059 1.00408 7.19264
17 1 2.34892 2.21122 6.07036
31 1 2.84299 0.833056 8.77975
28 1 0.4911 0.831564 9.8031
38 1 2.64671 2.05709 10.8049
30 1 1.43604 2.76612 10.9468
29 1 0.26596 2.2418 10.3161
105 1 -0.100224 -0.247017 10.4124
5 1 2.98207 3.05402 2.29458
6 1 1.1016 3.9731 0.681987
7 1 0.101575 4.75747 1.08514
4 1 1.74251 3.05083 1.621
53 1 0.412044 5.80623 3.75808
14 1 2.41957 3.53245 6.77676
22 1 0.93953 3.71401 7.14748
63 1 0.653914 4.22642 8.47197
34 1 1.55841 3.93558 11.7408
64 1 1.77625 5.26635 10.7865
66 1 1.28774 5.08983 9.45573
39 1 0.495479 8.26057 0.537846
42 1 1.818 7.98913 1.17042
41 1 1.71145 7.52181 2.53888
40 1 0.930616 6.34911 2.57183
45 1 0.139323 6.08171 1.18043
43 1 2.82891 8.36154 0.344767
54 1 2.42553 6.39468 5.19233
50 1 2.12835 8.39284 3.53441
52 1 1.08396 5.86091 5.05907
60 1 2.65041 7.86068 4.83506
108 1 1.48898 8.66769 8.42075
67 1 1.69834 7.23409 8.18034
71 1 0.778828 6.61082 7.2983
59 1 0.177384 6.24903 6.20005
77 1 2.14997 6.58948 11.0759
76 1 2.28001 7.96128 11.3415
75 1 1.31529 9.00524 10.8454
89 1 1.0245 10.3709 0.737306
84 1 1.06063 10.3059 2.12206
96 1 1.15477 10.8359 5.38673
21 1 1.679 11.9892 4.79486
83 1 2.18581 9.89083 3.01737
109 1 0.339668 9.15253 7.65358
80 1 0.614836 9.39745 12.0985
107 1 1.82052 9.43695 9.51293
1 1 3.98653 2.21539 1.76773
3 1 5.19368 1.95208 2.41994
16 1 4.04858 0.125178 5.39266
18 1 3.75017 1.44111 5.89822
2 1 6.28114 1.88292 3.22816
10 1 4.9395 2.14306 6.40704
25 1 3.24629 2.02657 9.49886
36 1 3.32834 1.00489 11.705
48 1 4.0585 4.87837 0.664803
44 1 5.45833 5.57567 2.5625
46 1 4.2302 5.0105 2.11855
51 1 3.4464 5.67294 5.78371
56 1 5.02173 5.81541 5.70675
8 1 3.36279 4.24728 2.85066
70 1 3.38617 5.27094 8.15713
57 1 3.06257 4.77668 6.90282
27 1 4.03784 3.17801 9.11031
24 1 5.36171 2.96011 8.69919
9 1 5.60643 2.98659 7.2941
78 1 4.47823 4.35137 11.7956
68 1 3.74807 4.53054 9.28555
69 1 4.27885 5.14422 10.5579
37 1 5.35771 3.31121 11.7451
72 1 5.25794 6.24041 10.542
47 1 4.99482 8.0625 2.27909
49 1 5.5329 6.79354 1.89117
92 1 4.99924 8.55767 3.61218
65 1 3.0828 6.62534 8.51451
62 1 5.50049 7.22067 8.43708
61 1 5.67441 7.95755 7.11722
73 1 4.13631 7.66771 8.86078
81 1 5.44314 6.78255 11.8404
102 1 4.26553 8.94797 9.47198
88 1 3.4837 11.4762 1.85882
85 1 3.55732 10.9688 0.499071
90 1 3.73236 9.47638 0.492532
82 1 4.90899 9.07648 1.38657
97 1 5.50847 10.256 5.45345
94 1 5.24654 11.7309 5.38383
20 1 2.97572 11.9134 4.42355
95 1 5.844 9.63952 4.13319
87 1 3.22479 11.1107 3.20466
93 1 5.50792 9.50503 6.82832
100 1 5.24413 10.42 7.95633
106 1 4.97663 11.8381 8.14199
33 1 3.6236 12.0902 9.0106
98 1 3.46728 11.1807 10.2493
103 1 3.41516 11.8306 11.5909
99 1 3.20689 9.80253 9.84352
101 1 5.48371 9.55866 9.20873
114 1 8.54182 1.6087 0.388655
123 1 8.79836 0.68019 5.35535
19 1 6.52175 1.0157 4.22769
15 1 6.53666 0.0878874 5.31802
121 1 7.86847 -0.265612 5.82867
26 1 6.01023 0.440881 8.58766
129 1 8.40838 0.409046 9.6692
134 1 6.50166 2.81999 11.0521
137 1 7.08231 0.735011 9.33225
130 1 7.60763 2.08386 11.8775
147 1 7.54347 4.36471 1.92576
139 1 8.76635 5.01309 1.53429
141 1 6.63317 4.7709 2.9264
150 1 8.34235 3.99434 4.80483
156 1 6.85426 4.51732 4.46611
58 1 5.84237 4.58404 5.53059
151 1 8.72618 5.24257 7.06696
166 1 7.58593 4.502 7.55712
23 1 6.4293 4.02077 6.82876
167 1 7.65249 4.00836 8.99074
165 1 8.77205 4.4088 9.71719
35 1 6.60482 3.12891 9.53254
171 1 7.91133 8.1766 1.67903
140 1 7.43439 7.58767 0.356705
142 1 8.22732 7.20624 2.59383
145 1 6.21058 6.84281 0.693599
143 1 9.1487 6.11087 2.5134
144 1 7.46293 7.46618 3.75531
148 1 7.21774 7.13519 5.13355
154 1 8.67519 7.06138 5.56741
55 1 6.01857 6.94804 5.95747
153 1 8.58934 6.72859 6.96465
162 1 8.71034 7.58611 8.05702
184 1 8.39394 8.97311 7.92659
188 1 7.60071 8.00996 11.2895
160 1 7.51953 7.1479 10.1261
74 1 6.13841 6.88961 9.58307
159 1 8.64947 6.76407 9.29333
169 1 7.07028 9.24654 2.1107
91 1 6.08186 9.69227 1.11365
86 1 6.56125 10.1065 -0.213244
174 1 8.04281 10.7133 3.6142
170 1 6.91138 9.91534 3.33532
177 1 8.75762 9.79333 6.67935
178 1 8.43085 11.1998 6.67725
180 1 7.87975 10.1745 8.9626
104 1 6.82458 9.82267 9.73405
181 1 8.48658 11.4168 8.93358
110 1 7.00126 9.31262 11.0504
115 1 10.4273 1.35654 2.19473
112 1 9.66857 1.36476 1.06703
116 1 11.8304 1.03843 2.50077
111 1 9.75003 1.87341 3.27344
120 1 9.76008 0.94834 4.36665
126 1 10.9363 0.0438919 4.40264
118 1 12.1944 0.74865 3.86551
127 1 10.1879 0.491761 8.11454
189 1 11.5144 0.323714 7.5515
135 1 10.0966 2.4081 10.0925
131 1 9.65121 1.20332 9.46392
132 1 11.3864 2.9335 9.89501
119 1 9.883 4.35769 0.906111
117 1 11.1555 4.27572 1.5301
157 1 11.3803 5.38501 3.57923
124 1 9.69769 3.49974 5.03015
128 1 10.2681 3.10686 3.79866
146 1 11.031 4.08497 3.02853
161 1 10.6669 4.87923 8.44679
155 1 9.99637 4.67555 7.10688
122 1 12.107 3.34521 6.37437
133 1 11.6464 4.0179 8.97649
125 1 10.7018 3.76568 6.06542
163 1 9.56126 5.54457 9.39696
136 1 9.27995 3.42977 10.6713
113 1 9.46035 3.96275 11.9368
168 1 12.1104 7.0934 0.290576
149 1 9.91979 6.68471 5.01991
138 1 10.2765 6.24081 3.73832
152 1 11.239 6.74052 5.73937
158 1 10.7794 7.3372 10.3352
164 1 10.787 8.20042 9.1993
79 1 11.2599 7.21521 11.5573
172 1 10.1316 10.2431 4.72007
173 1 11.222 11.1341 4.87247
179 1 9.33179 10.772 3.73185
176 1 12.1406 11.0267 5.92028
175 1 9.68463 9.51303 5.79004
185 1 9.16782 11.8317 7.7932
186 1 11.7734 11.2567 7.29696
182 1 11.7263 10.1445 8.13945
187 1 10.475 10.358 10.36
190 1 11.071 11.5543 10.7407
191 1 9.43642 9.93042 11.1553
183 1 10.8838 9.64037 9.22951
ITEM: TIMESTEP
5000
ITEM: NUMBER OF ATOMS
191
ITEM: BOX BOUNDS pp pp pp
-1.1272532533266008e-01 1.2112725325332594e+01
-1.1272532533266008e-01 1.2112725325332594e+01
-1.1272532533266008e-01 1.2112725325332594e+01
ITEM: ATOMS id type x y z
12 1 0.836969 0.676799 4.90014
13 1 1.09277 1.46 6.04764
11 1 0.621428 1.00542 7.28231
32 1 1.4399 0.866932 8.5091
31 1 2.9053 1.02271 8.64178
17 1 2.39346 2.17429 6.14661
28 1 0.588743 0.921187 9.66139
38 1 2.6402 1.96553 10.9479
30 1 1.48511 2.72394 10.9681
29 1 0.321203 2.19561 10.2555
7 1 -0.0122271 4.8101 1.18716
6 1 1.05319 4.0019 0.697824
5 1 2.56196 2.9762 2.74172
4 1 1.67263 3.2595 1.73492
14 1 2.06188 3.55919 6.66649
22 1 0.682827 3.75115 7.12989
63 1 0.587192 4.38435 8.5426
70 1 2.89686 5.28907 8.44218
57 1 2.929 4.68695 6.94073
34 1 1.28059 3.96507 11.5848
64 1 1.5646 5.06005 10.6525
66 1 1.54728 5.00378 9.14954
39 1 0.607755 8.25763 0.606814
42 1 1.87311 7.98253 1.23534
41 1 1.77011 7.58995 2.57463
40 1 0.777467 6.66494 2.75927
43 1 2.89702 8.24177 0.284622
45 1 0.201826 6.10832 1.45102
54 1 2.39331 6.55869 5.19119
50 1 2.29077 8.58595 3.50576
52 1 0.870018 6.40419 5.10862
53 1 0.208346 6.14201 3.89506
60 1 2.70831 7.95378 4.71967
108 1 1.7297 8.90789 8.38503
67 1 1.87082 7.44606 8.09435
71 1 0.756102 6.90518 7.38151
59 1 0.0610589 6.84192 6.1697
77 1 1.7745 6.37821 11.1083
76 1 2.37131 7.81497 11.3281
75 1 1.54092 8.95485 10.8452
89 1 0.785047 10.4389 0.873679
84 1 1.127 10.3829 2.16651
96 1 0.860085 10.5011 5.25996
21 1 1.61993 11.6131 4.78329
83 1 2.25786 9.86389 2.87746
109 1 0.674543 9.34866 7.58199
107 1 2.0338 9.44125 9.67316
80 1 0.690942 9.42003 11.9713
105 1 0.615489 12.0621 10.4879
1 1 3.50636 1.91394 2.73772
3 1 4.7532 1.50518 2.73403
16 1 4.06912 0.0683432 5.16348
18 1 3.60245 1.49795 5.89375
2 1 5.94048 0.995768 2.87322
10 1 4.68821 2.11697 6.55194
24 1 5.53291 2.81164 8.68003
9 1 5.68318 2.74861 7.25333
25 1 3.31821 2.08889 9.69516
36 1 3.02937 0.761704 11.7216
48 1 3.84271 4.54842 0.836981
44 1 5.39793 5.32378 2.45209
46 1 4.10032 4.79856 2.17762
56 1 4.99563 5.70847 5.61402
58 1 5.84551 4.47966 5.51269
51 1 3.5141 5.59382 5.85573
8 1 3.17867 4.23496 3.14216
78 1 4.57261 4.51824 11.7222
68 1 3.78276 4.39376 9.33004
69 1 4.51359 5.11258 10.4008
72 1 5.78924 5.86594 10.2554
37 1 5.48188 3.46277 11.5277
27 1 4.20746 3.032 9.18871
47 1 5.14957 7.7794 2.23532
49 1 5.66881 6.59214 1.81317
82 1 4.94858 8.94487 1.07849
92 1 5.60141 8.32697 3.50041
55 1 5.81216 6.97037 5.71596
73 1 4.29832 7.55832 8.75153
62 1 5.64179 7.16036 8.30367
61 1 5.75584 7.86379 6.9161
65 1 3.07786 6.72051 8.39967
102 1 4.4283 8.96112 9.46765
88 1 3.80281 11.2779 1.79667
85 1 3.61179 10.8283 0.40984
90 1 3.84787 9.34479 0.399361
97 1 5.5261 10.1766 5.31859
94 1 5.39076 11.6537 5.52571
95 1 5.98428 9.6057 3.98782
87 1 3.25446 10.9299 3.0997
20 1 3.02502 11.8092 4.32934
93 1 5.43166 9.41595 6.63526
100 1 5.35574 10.26 7.92012
106 1 5.00258 11.6426 8.06737
33 1 3.85896 11.967 8.80973
98 1 3.65303 11.2355 10.0731
103 1 3.50842 11.5899 11.4661
99 1 3.44852 9.86527 9.79861
101 1 5.71205 9.53015 9.03111
114 1 8.23482 1.46843 0.641595
123 1 8.80861 1.08185 5.42796
19 1 6.81803 0.126151 3.59405
15 1 6.58606 0.0220356 5.0722
121 1 7.84085 0.0401144 5.80524
26 1 6.00413 0.37032 8.64255
129 1 8.40987 0.384679 9.48344
134 1 6.47073 2.65594 11.012
130 1 7.17524 1.82436 12.0031
137 1 7.06463 0.688261 9.44951
147 1 7.55026 4.47554 2.16213
139 1 8.66503 5.26991 2.01181
156 1 6.67114 4.45404 4.41458
150 1 8.12995 4.47455 4.71461
141 1 6.41975 4.57526 2.98893
151 1 8.56678 5.34623 7.24943
166 1 7.48341 4.39042 7.61182
23 1 6.47875 3.75844 6.72458
167 1 7.56635 4.0731 9.00703
165 1 8.6281 4.45722 9.88936
35 1 6.64091 3.08807 9.67476
81 1 6.40718 5.82481 11.5675
171 1 7.96383 8.44852 1.51861
140 1 7.45013 7.6383 0.351486
142 1 8.04945 7.5656 2.64572
145 1 6.64068 6.46667 0.600433
143 1 8.9131 6.51889 2.74669
144 1 6.90778 7.5276 3.73541
148 1 7.16591 7.18719 5.11341
154 1 8.39085 7.12631 5.71195
153 1 8.41087 6.65853 6.94164
162 1 8.69301 7.64038 8.02468
188 1 7.52157 8.07696 11.1893
160 1 7.64226 7.23896 10.0496
74 1 6.36679 6.76102 9.47567
159 1 8.8549 6.90404 9.36486
169 1 7.12217 9.50098 1.72499
91 1 6.04765 9.76169 0.882834
174 1 7.71613 11.2501 3.42136
170 1 7.06998 9.93354 3.06922
179 1 9.07915 11.0815 3.47513
181 1 8.78792 11.3008 8.95165
178 1 8.50288 11.2456 6.58612
180 1 8.16668 9.90618 8.89722
177 1 8.7478 9.57655 6.45176
184 1 8.48775 9.08912 7.8376
104 1 6.97865 9.67731 9.53556
110 1 7.17149 9.40435 10.8861
86 1 6.47631 10.2391 11.8361
115 1 10.3841 1.57781 2.34192
112 1 9.32071 1.24434 1.46111
116 1 11.6673 1.00082 2.51869
111 1 10.0931 2.13049 3.58977
120 1 9.86571 1.19531 4.5925
126 1 10.8238 0.222794 4.50338
118 1 12.0407 0.660768 3.96213
127 1 10.2982 0.509752 7.88267
189 1 11.6433 0.273169 7.41963
135 1 10.0507 2.5548 10.1064
131 1 9.57631 1.25623 9.27992
119 1 9.74275 4.59677 1.09978
117 1 11.0002 4.37987 1.72626
157 1 11.1085 5.70314 3.8142
124 1 9.43932 4.12017 4.94533
128 1 10.0742 3.49594 3.76757
146 1 10.9615 4.41726 3.11205
161 1 10.4441 5.10649 8.64141
155 1 9.88465 4.81082 7.28401
122 1 11.7313 3.68958 6.31137
125 1 10.3951 4.11323 6.15273
133 1 11.5239 4.21749 9.01723
163 1 9.39444 5.55594 9.48075
136 1 9.31085 3.50128 10.7326
132 1 11.393 3.05558 9.81282
113 1 9.69525 4.06912 11.9946
168 1 11.8815 7.16485 0.714843
149 1 9.73622 7.57014 5.09003
138 1 9.99427 6.62858 3.74925
152 1 10.9571 7.16342 5.98922
158 1 10.9924 7.28802 10.5993
164 1 11.0575 8.15858 9.5025
79 1 11.1981 6.88038 11.8273
172 1 9.83872 10.3689 4.463
173 1 10.9416 11.0667 4.92905
176 1 11.8385 10.5255 5.78859
175 1 9.43622 9.29669 5.30957
182 1 11.7694 10.0214 8.07961
186 1 11.6956 11.0775 7.11085
185 1 9.34317 11.607 7.67375
187 1 11.153 10.3032 10.4407
183 1 11.3331 9.51428 9.30099
191 1 10.2016 9.64194 11.3109
190 1 12.0429 11.1445 10.9326
ITEM: TIMESTEP
6000
ITEM: NUMBER OF ATOMS
191
ITEM: BOX BOUNDS pp pp pp
-1.1641390275270673e-01 1.2116413902752633e+01
-1.1641390275270673e-01 1.2116413902752633e+01
-1.1641390275270673e-01 1.2116413902752633e+01
ITEM: ATOMS id type x y z
5 1 2.87377 2.89854 2.65753
12 1 1.03587 0.707651 4.96864
118 1 0.0476942 0.736741 3.9591
11 1 0.578641 0.948298 7.31448
32 1 1.37919 0.795277 8.50218
13 1 1.13995 1.49979 6.10241
17 1 2.34261 2.36286 6.09005
31 1 2.84516 0.904616 8.74667
28 1 0.579254 0.946958 9.64806
38 1 2.57876 1.92862 10.7549
30 1 1.44622 2.77419 10.8316
29 1 0.332058 2.34444 10.0552
6 1 1.11945 3.84578 0.71025
7 1 0.00987755 4.53707 1.27118
45 1 0.366015 5.89954 1.4992
4 1 1.7873 3.04611 1.70581
14 1 2.22912 3.70046 6.52723