ITEM: TIMESTEP
1000
ITEM: NUMBER OF ATOMS
191
ITEM: BOX BOUNDS pp pp pp
0.0000000000000000e+00 1.2000000000000000e+01
0.0000000000000000e+00 1.2000000000000000e+01
0.0000000000000000e+00 1.2000000000000000e+01
ITEM: ATOMS id type x y z
12 1 1.20509 0.848646 4.8824
1 1 2.45416 2.21262 3.44646
118 1 0.0568909 0.931156 4.21542
31 1 2.7963 1.20012 8.59879
32 1 1.33362 1.11411 8.47168
11 1 0.524598 1.20419 7.34151
17 1 2.71238 2.40746 6.16634
13 1 1.38231 1.67759 6.10224
28 1 0.600435 1.06936 9.68613
29 1 0.380463 2.49177 10.0643
30 1 1.54051 2.88833 10.6729
38 1 2.76966 2.1392 10.5977
4 1 2.18611 3.42645 1.49308
6 1 1.37529 4.1638 0.681185
7 1 0.316389 4.7799 1.23673
5 1 2.72351 3.38718 2.80547
53 1 0.358511 5.83537 4.1516
14 1 2.48962 3.77126 6.47623
22 1 1.04066 4.12647 6.92577
63 1 0.861504 4.89394 8.19573
34 1 1.60511 4.1806 11.3394
64 1 1.84804 5.17285 10.4568
66 1 1.97643 4.87993 9.13738
39 1 0.181589 8.50532 0.712513
43 1 2.65505 8.15867 0.868042
42 1 1.41328 7.99508 1.5577
45 1 0.410238 6.0196 1.6437
40 1 0.607622 6.50916 2.98891
41 1 1.37971 7.70322 2.91852
54 1 2.3679 6.52629 5.21292
50 1 2.14686 8.46843 3.69532
52 1 1.04645 6.21113 5.25484
60 1 2.43505 7.90596 4.88676
59 1 0.319578 6.54721 6.41356
67 1 1.82448 7.31926 8.10585
71 1 0.824954 6.39916 7.65354
108 1 1.50378 8.72625 8.5489
75 1 1.63839 8.73584 10.9
76 1 2.39605 7.75422 11.4558
77 1 2.36185 6.3648 11.1126
89 1 1.68557 10.4378 0.778156
84 1 1.26087 10.293 2.26055
96 1 1.39937 10.5244 5.80047
21 1 1.92503 11.6793 5.0829
83 1 1.97272 9.86486 3.45811
109 1 0.460584 9.13924 7.92927
107 1 1.96788 9.23301 9.68906
80 1 0.964113 9.47731 11.8748
3 1 3.46182 1.23958 3.5408
16 1 4.12741 0.164967 5.50129
2 1 4.94593 1.47411 3.18049
9 1 5.79569 2.82726 7.153
24 1 5.70492 2.43076 8.65892
26 1 5.83625 0.933983 8.58776
10 1 5.33926 2.06308 6.16372
18 1 3.95423 1.52412 6.0336
25 1 3.47206 2.22466 9.36298
36 1 3.1563 1.05003 11.3995
48 1 4.33373 4.65548 0.709691
44 1 5.99016 5.22315 2.44868
46 1 4.83482 4.57961 2.03733
8 1 3.91788 4.06314 2.96916
58 1 5.89245 4.77236 5.62939
56 1 5.05263 5.94244 5.47293
51 1 3.61934 5.79543 5.77172
70 1 3.40603 5.25056 8.37877
57 1 3.29911 4.88631 6.83742
78 1 5.12797 4.29346 11.5245
68 1 4.40579 4.42649 9.42396
69 1 5.059 5.21573 10.3426
27 1 4.47806 3.0505 9.22505
47 1 5.19546 7.94796 2.43487
82 1 4.90455 8.78538 1.39948
92 1 5.0144 8.61295 3.70179
55 1 5.95341 7.18716 5.53858
73 1 4.19161 7.74413 8.55678
62 1 5.53684 7.49362 7.95057
65 1 3.19209 6.8109 8.4114
61 1 5.63671 8.06901 6.60218
72 1 5.55993 6.5066 10.3029
81 1 5.54413 7.76087 11.0694
88 1 3.49987 11.0428 2.1632
85 1 3.16455 10.4098 1.00517
91 1 5.91697 9.71594 1.04399
90 1 3.67653 9.11918 1.0001
94 1 5.51007 11.7138 5.47563
97 1 5.54044 10.2859 5.25334
87 1 3.11333 10.7168 3.43176
20 1 3.18504 11.8843 4.2963
95 1 5.89847 9.73487 4.04418
93 1 5.64775 9.60237 6.45837
100 1 5.39615 10.4731 7.59658
101 1 5.51693 9.71445 8.84227
106 1 4.93343 11.8978 7.96221
33 1 3.59975 11.9983 8.55921
98 1 3.50555 11.1841 9.68144
103 1 3.22428 11.7935 10.9441
99 1 3.27887 9.79207 9.59418
102 1 4.32834 9.07969 9.01661
114 1 8.60925 1.0636 0.341457
15 1 6.28686 1.03729 5.36838
19 1 6.14573 1.31933 3.9212
121 1 7.76238 0.614062 5.91285
128 1 8.88866 2.97665 3.70562
129 1 8.35478 0.18746 9.37563
130 1 8.26103 2.13424 11.4211
137 1 7.02759 0.504277 9.32774
134 1 6.96563 2.54662 10.8961
35 1 6.87822 2.8466 9.43909
147 1 8.12484 3.78741 2.81579
139 1 8.95702 4.71955 2.11283
141 1 6.86754 4.534 3.29409
150 1 8.14886 4.52859 5.47536
156 1 6.87198 4.6036 4.71775
151 1 8.27125 5.07366 6.80782
166 1 7.22697 4.60737 7.64401
23 1 6.11789 4.13615 6.99852
167 1 7.57641 4.01855 8.90824
165 1 8.33637 4.89564 9.7276
37 1 6.09022 3.28999 11.648
49 1 6.32647 6.66491 2.15676
140 1 7.99375 7.68454 0.383597
142 1 8.58072 7.38481 2.5869
145 1 6.96274 6.67636 0.681379
171 1 8.11027 8.45739 1.63405
144 1 7.31434 7.04926 3.2988
148 1 7.18411 7.1601 4.73754
154 1 8.35935 7.1502 5.53352
153 1 8.1698 6.55922 6.73473
162 1 8.58165 7.49694 7.74916
184 1 8.14193 8.93666 7.51019
188 1 7.99517 8.26872 11.0671
74 1 6.48352 6.90777 9.14608
160 1 7.81743 7.2395 9.89896
169 1 7.09657 9.53003 1.87342
174 1 7.97704 10.9841 3.56656
170 1 6.93637 10.1165 3.21665
177 1 8.34338 9.55504 6.12299
178 1 8.10362 11.1346 6.34415
180 1 7.89147 9.70405 8.60484
181 1 8.60636 10.9521 8.71045
185 1 8.91145 11.4014 7.40967
104 1 6.73251 9.58153 9.41521
110 1 6.49943 9.08283 10.8292
86 1 6.07477 10.1283 11.7812
115 1 10.3233 1.23323 2.44296
116 1 11.6482 0.993539 2.82226
112 1 9.70433 1.22206 1.2498
111 1 9.4857 1.66562 3.53701
126 1 10.9251 0.207048 4.75638
120 1 9.76984 1.11383 4.82804
123 1 9.07273 1.35593 5.95414
127 1 9.85358 0.871564 7.35898
189 1 11.3665 0.497339 7.24559
131 1 9.26943 1.27343 8.8753
135 1 9.92736 2.45712 9.72437
136 1 9.31994 2.91918 10.9834
105 1 11.8296 0.0101488 10.1355
119 1 10.0568 4.12402 1.1601
117 1 11.2913 4.10232 1.87838
157 1 11.3328 4.9189 4.17809
124 1 9.18021 3.70881 5.01453
146 1 11.3855 3.97031 3.30822
138 1 10.2186 5.74187 3.89366
161 1 10.2777 4.94223 8.31128
155 1 9.72347 4.77316 7.05922
133 1 11.4486 4.36918 8.8939
122 1 11.7791 3.7662 6.22739
125 1 10.4313 4.01175 6.05778
163 1 9.44619 5.61201 9.18789
113 1 9.86272 3.82653 11.855
132 1 11.2015 3.12199 9.46298
143 1 9.41135 6.11047 2.82495
168 1 11.139 7.60473 0.563201
149 1 9.69535 7.6531 5.41856
152 1 10.827 7.13612 6.19421
159 1 9.168 7.09184 8.9772
158 1 11.2905 7.02504 10.2119
164 1 10.4181 7.84684 9.49228
79 1 11.2299 6.74242 11.5198
172 1 10.0074 10.0659 4.56232
173 1 11.0291 10.7553 5.07982
175 1 9.42791 9.05859 5.30838
179 1 9.28849 10.6904 3.58403
182 1 11.2861 9.8532 8.11419
186 1 11.4828 11.032 7.29613
176 1 11.9937 10.5963 6.03074
187 1 10.2157 9.88624 10.5578
190 1 10.9942 11.1135 10.7664
183 1 10.5117 9.3033 9.2034
191 1 9.03 9.33326 11.045
ITEM: TIMESTEP
2000
ITEM: NUMBER OF ATOMS
191
ITEM: BOX BOUNDS pp pp pp
-1.1133228446987507e-01 1.2111332284469855e+01
-1.1133228446987507e-01 1.2111332284469855e+01
-1.1133228446987507e-01 1.2111332284469855e+01
ITEM: ATOMS id type x y z
5 1 2.92888 2.72251 2.30025
12 1 1.19906 0.661402 4.7871
118 1 0.20708 0.432511 3.80646
13 1 1.29066 1.33829 6.07411
31 1 2.75676 0.907355 8.73893
32 1 1.17813 0.712459 8.62608
11 1 0.501685 0.867355 7.22947
17 1 2.42889 2.16102 6.1784
28 1 0.242076 0.893329 9.63717
38 1 2.68145 1.95382 10.7229
30 1 1.45999 2.64672 10.9685
29 1 0.280735 2.29819 10.198
7 1 0.381845 4.78855 1.38467
6 1 1.16197 3.80456 0.650537
45 1 1.06902 5.84358 2.05319
4 1 1.84647 2.80166 1.35654
14 1 2.20886 3.62463 6.56361
22 1 0.868424 3.90112 7.08146
63 1 0.650322 4.60801 8.35322
34 1 1.47171 3.94143 11.4913
64 1 1.80649 5.04055 10.593
66 1 1.85255 4.74794 9.1861
39 1 0.306213 8.64916 0.877209
43 1 2.36677 8.0543 0.614512
42 1 1.37365 8.05662 1.63249
41 1 1.68857 7.72531 3.00681
54 1 2.42458 6.6936 5.61831
50 1 2.1723 8.64074 3.88684
52 1 0.918222 6.40912 5.60698
60 1 2.54697 7.99456 5.07519
53 1 0.262844 6.16637 4.33185
40 1 0.951591 6.54125 3.27663
108 1 1.39618 8.45911 8.70326
67 1 1.77125 7.13623 8.13697
71 1 0.620383 6.22996 7.82811
59 1 -0.146725 6.57646 6.68138
77 1 2.02557 6.31536 11.2719
76 1 1.77157 7.69787 11.629
75 1 1.29121 8.90807 11.0617
107 1 1.80279 9.18447 9.82261
89 1 1.56586 10.685 0.737385
84 1 1.37237 10.5733 2.09857
80 1 0.785317 9.74092 -0.0671881
83 1 2.22433 9.99194 3.28317
21 1 1.95786 11.7209 5.03922
96 1 1.26512 10.6145 5.5579
176 1 -0.0994828 10.6154 5.88257
109 1 0.233495 9.03303 8.07208
3 1 5.12427 1.24258 1.9275
1 1 3.84545 1.69501 2.32078
16 1 4.21517 0.0428765 5.52105
18 1 3.86591 1.38346 5.943
10 1 4.94022 2.08385 6.35107
24 1 5.62751 2.25689 8.60312
25 1 3.20019 2.03137 9.49643
36 1 2.90562 0.869764 11.653
26 1 5.81645 0.879607 8.97495
48 1 4.10681 4.94958 0.656168
44 1 5.53246 5.24065 2.64592
46 1 4.43841 4.70497 2.01293
8 1 3.38576 4.04593 2.7857
56 1 5.08837 5.75746 5.65043
51 1 3.5645 5.8891 5.88773
70 1 3.17077 5.15084 8.31362
57 1 3.17648 4.7625 6.85804
9 1 5.6601 2.81742 7.28377
78 1 4.844 4.67587 11.5522
68 1 4.26435 4.45716 9.21837
69 1 4.82106 5.25705 10.3286
37 1 5.69901 3.46647 11.7041
27 1 4.31706 2.98642 9.29216
47 1 5.033 7.73542 2.27158
82 1 4.64586 8.74309 1.31058
90 1 3.39067 9.11818 0.697565
92 1 4.95753 8.29511 3.64054
73 1 4.05998 7.78067 8.50104
62 1 5.55364 7.48368 8.10127
61 1 5.73766 8.05964 6.68172
65 1 3.1803 6.72667 8.37381
102 1 4.27958 8.98227 9.14592
72 1 5.43077 6.5039 10.1322
81 1 5.5187 7.57088 11.0197
88 1 3.57015 11.3673 1.91192
91 1 5.70927 9.54142 1.02461
85 1 3.09352 10.7699 0.492935
87 1 3.30063 11.0119 3.30946
94 1 5.51477 11.7494 5.37519
20 1 3.27479 11.6093 4.64367
97 1 5.54546 10.309 5.27663
95 1 5.6775 9.65543 3.98344
93 1 5.5306 9.6013 6.50069
100 1 5.27393 10.7253 7.84566
101 1 5.47559 9.77467 8.89086
33 1 3.53414 12.0024 8.98797
106 1 4.80588 12.0766 8.34019
98 1 3.18115 11 10.0457
103 1 3.26038 11.6902 11.473
99 1 3.10632 9.62875 9.86072
86 1 5.876 9.99781 11.8996
114 1 8.67165 1.87816 0.438376
2 1 6.32849 1.21662 2.66533
15 1 6.88627 0.096067 5.04361
19 1 6.97073 0.596146 3.65229
123 1 9.12916 1.05368 5.3739
121 1 8.16591 -0.00148695 5.68872
129 1 8.10358 0.259354 9.5559
130 1 8.16172 2.54842 11.4925
137 1 6.79452 0.426964 10.0288
134 1 6.75949 2.7521 11.0675
147 1 7.90273 4.65145 2.43884
141 1 6.60786 4.58339 3.25926
150 1 8.22526 3.65867 4.9765
156 1 6.8901 4.24256 4.78572
58 1 5.85338 4.48607 5.81708
151 1 8.58487 5.25629 6.97457
166 1 7.52173 4.56688 7.75281
23 1 6.20945 4.06735 7.04917
165 1 8.64676 4.43297 9.90458
167 1 7.55623 4.0959 9.08972
35 1 6.6762 3.15164 9.61148
171 1 7.90579 8.44859 1.53356
140 1 7.57324 7.72401 0.285068
142 1 8.27682 7.55053 2.65262
145 1 6.80512 6.58852 0.794119
49 1 5.99068 6.58857 2.20101
144 1 7.22372 7.09768 3.39094
148 1 7.04358 6.96158 4.80939
154 1 8.37657 7.02773 5.43901
55 1 5.88796 7.08685 5.51277
153 1 8.4117 6.64951 6.77198
162 1 8.50933 7.63341 7.7568
184 1 8.34148 8.99227 7.60306
159 1 9.03702 7.03777 9.10999
188 1 7.86465 8.3932 11.1068
160 1 7.73623 7.29727 9.89105
74 1 6.32552 6.92668 9.08081
110 1 6.50789 9.06469 10.8335
169 1 6.92718 9.39775 1.84212
174 1 8.03309 10.6949 3.51882
170 1 6.86396 10.0113 3.21642
177 1 8.92473 9.63362 6.36802
178 1 8.81951 11.0422 6.35797
180 1 7.86388 9.86514 8.59336
181 1 8.3706 11.3283 8.74153
104 1 6.76911 9.57678 9.49291
191 1 9.04546 9.43034 10.9845
115 1 10.7824 1.512 2.04849
112 1 9.73603 1.49398 1.00373
116 1 12.0954 0.93862 2.55222
111 1 10.1555 1.99878 3.33759
126 1 11.2297 0.0905793 4.45978
120 1 10.0733 1.12616 4.43404
127 1 10.1556 0.622242 7.88205
189 1 11.5685 0.184478 7.37387
135 1 9.99962 2.44224 9.84232
131 1 9.40368 1.35524 9.02516
119 1 9.99355 4.78328 1.06609
117 1 11.2356 4.55154 1.75049
139 1 9.11832 5.40321 1.94345
157 1 11.2257 5.64839 3.85897
124 1 9.68063 3.68234 5.00584
128 1 10.4587 3.35636 3.79916
146 1 11.0679 4.42937 3.20424
161 1 10.4445 5.12382 8.50914
155 1 9.94897 4.82526 7.16448
122 1 11.8753 3.70399 6.30679
125 1 10.557 4.0453 6.13499
133 1 11.5617 4.26547 9.00356
163 1 9.39359 5.4561 9.33223
136 1 9.16653 3.3806 10.7693
113 1 9.64661 4.34089 11.9186
132 1 11.3655 2.99216 9.65254
143 1 9.25559 6.56841 2.7052
168 1 11.3099 7.94525 0.823723
149 1 9.67142 7.54347 5.10719
138 1 10.1342 6.74297 3.78668
152 1 10.9471 7.11382 6.28325
158 1 11.0918 7.55082 10.4308
164 1 10.2815 7.91494 9.3041
79 1 10.8561 7.48093 11.7777
172 1 10.332 9.98951 4.43811
173 1 11.2251 10.9872 4.85035
179 1 9.3387 10.5267 3.62504
175 1 9.66785 8.9822 5.28837
182 1 11.4073 9.89114 8.16308
186 1 11.5397 11.0044 7.20187
185 1 9.31676 11.661 7.63964
187 1 10.1213 9.97477 10.2496
190 1 10.6512 11.1882 10.4271
183 1 10.4767 9.32642 9.04227
105 1 11.5664 12.1357 10.1764
ITEM: TIMESTEP
3000
ITEM: NUMBER OF ATOMS
191
ITEM: BOX BOUNDS pp pp pp
-2.0085240357542389e-01 1.2200852403575379e+01
-2.0085240357542389e-01 1.2200852403575379e+01
-2.0085240357542389e-01 1.2200852403575379e+01
ITEM: ATOMS id type x y z
4 1 1.40868 2.80121 1.43306
5 1 2.81646 2.42669 1.57435
12 1 0.817752 0.632009 4.69885
13 1 1.02131 1.44356 5.93711
17 1 2.20959 2.22196 6.24072
32 1 1.3898 0.745003 8.3641
11 1 0.436262 0.849318 7.1609
31 1 2.86472 0.368015 8.88848
28 1 0.597761 0.943383 9.62783
38 1 2.61874 1.72917 11.0645
30 1 1.38959 2.62124 11.0648
29 1 0.334345 2.35072 10.1796
105 1 0.189078 -0.229824 10.2036
7 1 0.0367692 4.74115 1.23341
6 1 0.700042 3.73977 0.599277
45 1 0.95813 5.62258 1.92152
14 1 2.12062 3.52855 6.77443
22 1 0.666815 3.84552 7.12446
63 1 0.554409 4.74543 8.30965
34 1 1.16233 3.89797 11.6354
64 1 1.34406 5.04921 10.76
66 1 1.70171 4.82206 9.42292
39 1 0.233005 8.75627 0.699013
43 1 2.54471 8.1855 0.537981
42 1 1.35979 8.10812 1.35597
41 1 1.34374 7.74843 2.78569
54 1 2.21807 6.6805 5.46725
50 1 1.98943 8.71383 3.68326
52 1 0.776372 6.38963 5.36166
40 1 0.917842 6.48181 2.97985
60 1 2.30579 8.03038 4.91113
53 1 0.111666 6.22735 4.11542
108 1 1.64424 8.6192 8.74393
67 1 1.79935 7.17769 8.5033
71 1 0.573055 6.3632 7.66148
59 1 -0.0459856 6.57375 6.44878
75 1 1.56517 8.9479 11.1095
76 1 2.25732 7.64813 11.6048
77 1 1.90163 6.29665 11.398
89 1 1.68349 10.5991 0.616958
84 1 1.15829 10.7405 2.06012
80 1 0.939046 9.64118 -0.288699
83 1 2.16068 10.0742 3.07538
21 1 1.55004 11.9138 4.68376
96 1 0.859223 10.8276 5.39986
20 1 2.9601 11.8884 4.42666
109 1 0.470252 9.14912 8.13868
107 1 2.11729 9.3198 9.90475
3 1 4.7905 1.12247 1.46409
1 1 3.65996 1.36049 0.838738
2 1 5.58944 1.08154 2.62933
16 1 3.74274 -0.0385695 5.41169
18 1 3.50068 1.50318 6.08715
10 1 4.68583 2.03107 6.49043
24 1 5.63114 2.23337 8.78708
9 1 5.63419 2.67712 7.24492
25 1 3.17495 1.61012 9.74945
36 1 3.29694 0.782501 11.958
37 1 5.89418 2.8172 11.9825
27 1 4.06722 2.69149 9.19154
48 1 4.75442 4.66074 0.681033
44 1 5.30046 5.19286 2.8958
46 1 4.49588 4.36378 2.0451
8 1 3.62827 3.34859 2.18022
58 1 5.72166 4.60044 5.56331
56 1 4.85158 5.8147 5.62764
51 1 3.32461 5.66164 5.92343
70 1 3.10457 5.10668 8.57489
57 1 2.90628 4.65364 6.94716
78 1 5.04238 3.96605 11.9048
68 1 3.99344 4.13421 9.43331
69 1 4.87482 4.56349 10.5978
72 1 5.44055 5.84024 10.457
47 1 4.82094 7.8539 2.47003
82 1 4.71356 8.6861 1.32281
49 1 5.49015 6.66868 2.80035
92 1 4.58405 8.54807 3.68599
55 1 5.6318 7.10916 5.67881
73 1 4.17612 7.56425 8.92035
62 1 5.46352 7.22304 8.33655
61 1 5.57438 7.92849 6.76642
65 1 3.10962 6.68044 8.69966
102 1 4.53548 8.95232 9.39994
81 1 5.03703 6.57429 11.6
88 1 3.83517 11.1825 1.96971
91 1 5.82474 9.43812 0.958292
85 1 3.31623 10.6557 0.470299
90 1 3.49888 9.11031 0.79757
97 1 5.26594 10.3075 5.3595
94 1 5.18285 11.7402 5.42531
87 1 3.19162 10.9785 3.31728
95 1 5.48673 9.69431 4.07399
93 1 5.34522 9.56498 6.72149
100 1 5.49034 10.4233 7.9483
106 1 5.27907 11.8861 8.41015
101 1 5.74121 9.59767 9.09611
99 1 3.43867 9.72877 9.97823
98 1 3.78358 11.125 10.2396
103 1 3.40563 11.7233 11.6748
33 1 3.87754 11.9694 9.10147
114 1 9.02015 1.7517 0.1823
123 1 8.71766 0.739554 4.82719
19 1 6.12745 0.801667 3.86455
15 1 6.42399 -0.0151529 4.93531
26 1 6.09409 0.693417 8.66943
129 1 8.62917 0.195076 9.45545
130 1 8.32529 2.48551 11.4741
137 1 7.28594 0.562886 9.41093
134 1 6.92766 2.37882 10.9167
35 1 6.79329 2.89068 9.54482
147 1 7.71951 4.45354 2.28486
139 1 8.76822 5.2838 1.96459
141 1 6.57515 4.57447 3.26513
150 1 8.30769 4.10039 4.91996
156 1 6.87231 4.37597 4.62474
151 1 8.47267 5.43361 7.0231
166 1 7.49756 4.49032 7.64612
23 1 6.34706 4.01379 6.84366
167 1 7.69263 3.9431 9.06898
165 1 8.57159 4.34198 9.99635
171 1 8.01417 8.58691 1.73852
140 1 8.54309 8.27817 0.448712
142 1 7.90678 7.37084 2.68727
145 1 8.72298 7.02844 -0.00562673
143 1 9.01758 6.38068 2.83912
144 1 6.67148 7.30386 3.4395
148 1 6.75386 7.17577 4.84296
154 1 8.18521 7.19765 5.47024
153 1 8.19924 6.78348 6.7818
162 1 8.5801 7.55968 7.87718
184 1 8.56303 9.13134 7.68529
74 1 6.19386 6.60478 9.55352
160 1 7.44891 6.93417 9.93878
159 1 8.68398 6.90061 9.17273
169 1 6.94183 9.51199 1.89792
170 1 6.54309 10.0874 3.14199
174 1 7.52218 10.8361 3.70362
121 1 7.80459 12.2591 5.54262
179 1 8.87486 10.7828 3.67316
177 1 8.80619 9.73322 6.30719
178 1 8.53928 11.253 6.25998
180 1 8.1382 9.91784 8.77782
181 1 8.708 11.3193 8.76243
104 1 7.017 9.56909 9.80034
110 1 7.20674 9.69292 11.1448
188 1 8.48992 9.35109 11.6782
86 1 6.1646 9.66784 12.0335
115 1 10.735 1.9749 2.13395
112 1 10.0676 1.90547 1.00276
116 1 12.1089 1.25192 2.4366
111 1 10.1414 2.34054 3.46923
120 1 9.91255 1.08113 4.21303
126 1 10.9495 0.0273931 4.10482
118 1 12.1587 0.643761 3.79416
127 1 10.3909 0.354653 7.91828
189 1 11.6828 0.160321 7.35772
131 1 9.80064 1.07909 9.18291
135 1 10.2758 2.32634 9.85426
119 1 9.85161 4.82764 0.977003
117 1 11.1336 4.63314 1.69507
157 1 11.1938 5.9036 3.93836
124 1 9.75306 3.99413 5.0599
128 1 10.4461 3.60432 3.87304
146 1 11.0219 4.6693 3.09893
161 1 10.4095 5.22931 8.57086
155 1 9.85966 5.14111 7.16053
122 1 11.7402 3.53553 6.51189
125 1 10.4911 4.17197 6.2973
133 1 11.5857 4.27546 8.95089
163 1 9.35799 5.51369 9.44671
132 1 11.5383 2.9854 9.59663
136 1 9.20803 3.64754 10.945
113 1 9.71429 4.37642 12.0793
168 1 11.5841 7.89368 0.342717
149 1 9.28409 7.77403 4.79867
138 1 10.0425 6.79545 3.79712
152 1 11.3563 7.61243 6.24947
158 1 10.9698 7.30614 10.3358
164 1 10.9341 8.37554 9.50833
79 1 11.4735 7.12851 11.6194
172 1 9.98705 10.1965 4.25716
173 1 11.0209 11.0664 4.70238
176 1 11.8494 10.8062 5.77708
175 1 9.43759 9.17424 5.11533
182 1 11.6866 10.0174 8.21743
186 1 11.721 11.1354 7.09431
185 1 9.31398 11.8372 7.40518
187 1 10.784 10.4079 10.5749
190 1 11.9436 11.188 10.6905
191 1 9.63141 10.2627 11.3504
183 1 10.8085 9.75152 9.29474
ITEM: TIMESTEP
4000
ITEM: NUMBER OF ATOMS
191
ITEM: BOX BOUNDS pp pp pp
-1.5604059165840276e-01 1.2156040591658360e+01
-1.5604059165840276e-01 1.2156040591658360e+01
-1.5604059165840276e-01 1.2156040591658360e+01
ITEM: ATOMS id type x y z
4 1 1.49413 2.71079 1.42316
12 1 0.95816 0.662159 4.68075
118 1 -0.101128 0.629747 3.64055
13 1 1.31621 1.48802 5.86542
17 1 2.49424 2.30594 5.90069
31 1 2.83271 0.801655 8.81045
32 1 1.51248 0.737236 8.35567
11 1 0.634485 0.912549 7.18794
28 1 0.699376 0.805505 9.56061
38 1 2.57761 1.72087 10.8693
30 1 1.35266 2.49008 10.9199
29 1 0.410453 2.16693 9.82385
7 1 0.13957 4.58646 1.36267
6 1 0.800146 3.57621 0.557408
45 1 1.00877 5.40053 2.10041
14 1 2.22919 3.58032 6.41512
63 1 0.60036 5.08638 8.53643
22 1 0.927284 4.05704 6.17023
34 1 1.26455 3.74058 11.519
64 1 1.66954 4.88341 10.7886
66 1 1.72289 4.86117 9.37901
39 1 0.385125 8.20537 0.924699
43 1 2.49209 7.82009 0.522353
42 1 1.66472 7.56688 1.6005
41 1 1.6262 7.38092 2.90583
54 1 2.49338 6.56121 5.43568
50 1 2.00888 8.33509 3.81427
52 1 0.822166 6.48913 5.54948
40 1 0.959291 6.19775 3.1986
53 1 0.0883287 6.0826 4.36169
60 1 2.78153 7.741 4.81178
108 1 1.64289 8.67003 8.77591
67 1 1.94252 7.33199 8.51589
152 1 0.34794 8.43446 6.72649
59 1 0.351802 6.98808 6.76085
71 1 0.765005 6.52233 7.98403
77 1 1.81595 6.22122 11.2277
76 1 2.04536 7.51373 11.6159
75 1 1.45542 8.79986 11.1267
89 1 1.37896 10.2968 0.95497
84 1 1.16853 10.1809 2.35436
80 1 0.764398 9.30746 -0.0344481
83 1 2.1438 9.66175 3.34106
21 1 1.67426 11.7167 4.79348
96 1 0.961132 10.6411 5.48419
109 1 0.694576 9.18866 7.84859
107 1 2.0954 9.32231 9.9735
105 1 0.0601223 12.1876 10.2816
3 1 4.27234 0.343307 1.89364
1 1 3.40355 1.19315 1.07375
2 1 5.33416 0.736682 2.74453
5 1 2.90622 2.46956 1.69013
16 1 3.92343 0.163171 5.37031
18 1 3.71875 1.52715 5.93911
10 1 4.89113 2.1195 6.54254
24 1 5.59305 2.47878 8.82404
26 1 5.76601 0.969163 8.88531
25 1 3.23545 1.92746 9.55703
36 1 3.07266 0.748298 12.0344
27 1 4.20336 2.98471 9.24268
48 1 4.16095 4.76935 0.530312
8 1 3.73864 3.36301 2.45753
46 1 4.18942 4.62042 2.00888
44 1 5.2291 5.22617 2.61773
56 1 4.91874 5.89428 5.81293
58 1 5.76049 4.68853 5.71333
70 1 2.94296 4.96455 8.59371
57 1 2.93329 4.62908 7.00685
51 1 3.36492 5.70102 6.16959
9 1 5.70855 2.88358 7.40473
78 1 4.7765 4.26471 11.6703
68 1 4.07061 4.31909 9.37086
69 1 4.88596 4.94484 10.4842
37 1 5.65465 3.17394 11.7294
47 1 4.74522 7.81903 2.54058
82 1 4.68533 8.49603 1.29917
49 1 5.43302 6.59266 2.68167
90 1 3.51485 8.91184 0.624252
92 1 4.91613 8.61203 3.63569
55 1 5.82297 7.18652 5.85329
73 1 4.24207 7.64546 8.73714
62 1 5.68109 7.44751 8.36387
61 1 5.91153 8.16024 6.96217
65 1 3.16931 6.82544 8.56386
81 1 5.32072 7.11442 11.659
72 1 5.50883 6.31116 10.4714
102 1 4.35186 8.94254 9.50629
88 1 3.71735 11.3802 2.15871
91 1 5.71021 9.3701 0.844597
85 1 3.04828 10.5631 0.725605
97 1 5.4434 10.3859 5.52805
94 1 5.38359 11.8703 5.63672
87 1 3.18342 10.7258 3.44152
95 1 5.68612 9.68481 4.21781
20 1 3.08209 11.5456 4.68495
93 1 5.53579 9.64657 6.76178
100 1 5.40317 10.4932 7.94465
106 1 5.06393 12.024 8.43188
103 1 3.17151 11.5941 11.7538
98 1 3.61508 11.2028 10.3324
99 1 3.36451 9.81965 9.96783
86 1 6.0341 9.97572 12.01
33 1 3.69872 12.0658 9.02849
101 1 5.58744 9.64377 9.2081
114 1 9.09648 1.70935 -0.0453045
123 1 8.69969 0.725538 5.01339
15 1 6.45328 0.273326 5.13563
19 1 6.27833 0.800672 3.81271
129 1 8.56726 0.196134 9.42054
137 1 7.15329 0.702617 9.3703
134 1 6.79409 2.79036 11.0168
130 1 8.16553 2.71126 11.5253
147 1 7.61268 4.71637 2.01421
139 1 8.81157 5.4616 1.83651
141 1 6.50834 4.5919 3.01481
150 1 8.09306 4.1733 4.95946
156 1 6.71177 4.46327 4.58786
151 1 8.5136 5.18203 7.15884
166 1 7.37144 4.63823 7.75963
23 1 6.23399 4.2423 7.04047
165 1 8.73645 4.5044 9.77717
136 1 8.87409 3.88362 11.1592
167 1 7.58321 4.17282 9.0969
35 1 6.69771 3.15492 9.60878
171 1 7.68103 8.61025 1.74572
140 1 8.57871 8.69677 0.652424
142 1 7.66062 7.52957 2.70597
143 1 8.91109 6.61105 2.66951
144 1 6.61927 7.01835 3.50166
148 1 6.85305 7.1923 4.82005
154 1 8.1403 7.06221 5.31205
153 1 8.45084 6.55409 6.67753
162 1 8.74425 7.4544 7.72913
184 1 8.36557 8.85336 7.6751
159 1 8.8975 6.85319 9.04869
160 1 7.77596 6.78596 9.85683
74 1 6.43792 7.01044 9.50698
169 1 6.59579 9.49211 1.92415
174 1 7.88525 10.7358 3.30838
170 1 6.6112 10.0507 3.25706
121 1 7.83422 12.067 5.35674
177 1 8.57435 9.57201 6.3777
178 1 8.4955 11.0873 6.15293
180 1 7.87857 9.89647 8.64911
181 1 8.54891 11.2652 8.66129
104 1 6.95875 9.7692 9.70286
110 1 7.1021 9.89935 11.1092
188 1 8.31066 9.49838 11.7691
115 1 10.6794 1.83286 2.04744
112 1 10.0663 1.47855 0.811157
116 1 11.868 1.18805 2.25996
111 1 9.9081 2.18713 3.18169
120 1 9.75773 1.13039 4.15129
126 1 10.9584 0.1147 4.29072
127 1 10.3746 0.359558 7.81823
189 1 11.7139 0.0887321 7.46833
131 1 9.57206 1.06744 8.81649
135 1 10.3174 2.28212 9.13956
119 1 9.74284 4.78748 1.08385
117 1 11.0234 4.51291 1.84262
146 1 10.8556 4.53467 3.22033
124 1 9.34977 3.76652 4.93328
128 1 10.029 3.58186 3.7407
157 1 10.9808 5.8802 3.91566
122 1 11.8366 4.04404 5.97908
161 1 10.5171 4.93268 8.30963
155 1 9.74393 4.46911 7.22989
133 1 11.7548 4.31719 8.70168
125 1 10.2859 3.91284 5.99857
163 1 9.62475 5.60096 9.14936
132 1 11.6593 2.93332 9.11686
113 1 9.65348 4.74464 11.9692
168 1 11.5881 7.58265 0.675295
145 1 9.29524 7.41997 0.036089
149 1 9.29016 7.70563 4.71379
138 1 9.79753 6.85251 3.78418
175 1 9.42031 8.96782 5.07272
158 1 11.239 7.17752 10.4775
164 1 11.2607 8.19295 9.61235
79 1 10.6222 7.41987 11.9502
172 1 9.9797 9.99389 4.3534
173 1 10.9529 10.9788 4.79841
179 1 9.22303 10.5412 3.28334
176 1 11.8989 10.557 5.87294
182 1 11.9641 10.0617 8.32148
186 1 11.7464 11.0667 7.2922
185 1 9.23165 11.5376 7.33673
187 1 10.6827 10.4681 10.5798
190 1 11.2029 11.6746 10.7548
191 1 9.54467 10.1039 11.2258
183 1 11.2304 9.57512 9.59608
ITEM: TIMESTEP
5000
ITEM: NUMBER OF ATOMS
191
ITEM: BOX BOUNDS pp pp pp
-1.2822058355071772e-01 1.2128220583550595e+01
-1.2822058355071772e-01 1.2128220583550595e+01
-1.2822058355071772e-01 1.2128220583550595e+01
ITEM: ATOMS id type x y z
116 1 0.0121545 1.17553 2.71994
4 1 1.65311 2.59517 1.3599
12 1 1.23932 0.458091 4.9722
118 1 0.176896 0.679415 4.0255
11 1 0.59818 0.948915 7.37179
32 1 1.47655 0.947865 8.58875
31 1 2.8259 0.932852 8.7961
17 1 2.51944 2.04118 6.20556
13 1 1.406 1.17938 6.16788
28 1 0.653085 1.13436 9.7169
38 1 2.69795 1.91086 10.9373
30 1 1.49233 2.83375 11.047
29 1 0.41912 2.48806 10.0862
105 1 0.183437 0.0536623 10.4477
7 1 0.107627 4.54529 1.59181
6 1 1.01012 3.77446 0.780732
45 1 0.787316 5.73822 2.07348
22 1 0.885099 3.676 6.13253
14 1 2.19167 3.42867 6.54622
63 1 0.462804 5.10775 8.61105
70 1 3.04571 5.1142 8.63024
34 1 1.44498 4.033 11.7647
64 1 1.59424 5.15265 10.8816
66 1 1.55374 4.89611 9.45666
39 1 0.248794 8.60516 0.642947
43 1 2.37898 8.15273 0.600288
42 1 1.28629 8.16722 1.48303
41 1 1.32381 7.94355 2.78836
54 1 2.44435 6.47501 5.38076
50 1 2.08142 8.66744 3.78025
52 1 0.948989 6.298 5.49478
40 1 0.792755 6.63098 3.18664
53 1 0.0981584 6.25019 4.36979
60 1 2.7246 7.80553 4.76782
108 1 1.32777 8.64239 8.58022
67 1 1.83972 7.31704 8.1978
71 1 0.814017 6.39079 7.91571
59 1 0.378114 6.75927 6.63142
65 1 3.06058 6.78258 8.63804
77 1 2.12842 6.46051 11.3604
76 1 2.02701 7.77207 11.5547
75 1 1.40621 8.88889 11.0536
89 1 1.37158 10.633 0.767428
84 1 1.19524 10.5856 2.20553
80 1 0.819826 9.65848 -0.0542988
83 1 2.29456 9.97682 3.02194
21 1 1.78196 11.4593 4.96608
96 1 1.03046 10.3983 5.53766
176 1 -0.337899 10.6122 5.9003
109 1 0.191724 8.88244 7.81813
107 1 1.83297 9.21805 9.7281
3 1 4.35106 0.41157 1.73801
1 1 3.55038 1.19307 0.964742
5 1 3.02136 2.33675 1.63252
2 1 5.45366 0.827932 2.48653
16 1 4.08028 0.099481 5.30089
18 1 3.69859 1.35383 5.85596
10 1 4.78856 2.10886 6.44364
24 1 5.71825 2.24508 8.64893
9 1 5.52891 2.75684 7.26582
26 1 5.86267 0.51985 8.69303
25 1 3.29118 2.03425 9.67483
36 1 3.25321 0.920066 11.8691
27 1 4.26142 2.87409 9.2518
48 1 4.68943 4.65569 0.521545
8 1 3.68373 3.48984 2.14746
46 1 4.57562 4.54979 1.8449
44 1 5.45943 5.29073 2.80956
56 1 5.09387 5.87392 5.91974
58 1 5.84918 4.70566 5.72572
51 1 3.38493 5.61838 6.10631
57 1 2.83928 4.57079 7.10104
78 1 5.19117 4.12275 11.626
68 1 4.22266 4.28357 9.35791
69 1 5.01146 4.7613 10.3988
37 1 5.73775 2.84226 11.6688
47 1 4.76127 8.00089 2.53879
82 1 4.54403 8.81231 1.3203
49 1 5.59507 6.80713 2.80911
92 1 4.7904 8.88087 3.71975
55 1 5.79585 7.13767 5.72236
73 1 4.1049 7.72177 8.87627
62 1 5.33718 7.428 8.04578
61 1 5.56299 8.23177 6.8239
72 1 5.47616 6.0759 10.1762
81 1 5.69127 6.83289 11.3517
102 1 4.18433 8.9918 9.3869
88 1 3.86617 11.3713 1.90071
91 1 5.73145 9.45922 0.845053
85 1 2.94777 10.8266 0.476395
90 1 3.35645 9.23321 0.563379
97 1 5.55223 10.4199 5.51796
94 1 5.43981 11.844 5.57201
20 1 3.08728 11.6831 4.33137
95 1 5.85342 9.76731 4.21835
87 1 3.26864 11.0298 3.13598
93 1 5.46686 9.76721 6.76645
100 1 5.36808 10.5278 7.96599
106 1 4.89768 11.8786 8.32791
101 1 5.44887 9.67752 9.20548
103 1 3.17663 11.7044 11.5293
98 1 3.42272 11.2728 10.1639
99 1 3.17231 9.84373 9.69896
86 1 6.0063 9.8265 11.7601
33 1 3.60702 12.0615 9.06084
114 1 9.23402 2.0115 0.0917706
123 1 8.88988 0.903563 5.09941
15 1 6.59073 0.076781 4.86534
19 1 6.32999 0.81402 3.59025
121 1 7.90025 -0.241434 5.37421
129 1 8.47979 -0.0574738 9.39945
137 1 7.07085 0.270569 9.44263
130 1 8.13429 2.73117 11.7004
134 1 6.8691 2.51623 11.0083
35 1 6.72823 2.87773 9.61498
147 1 7.80188 4.42219 2.55332
139 1 8.8896 5.40374 2.13616
141 1 6.62947 4.60025 3.27761
150 1 8.19496 4.21615 5.15587
156 1 6.86967 4.55201 4.72761
151 1 8.34259 5.0777 6.88288
166 1 7.3149 4.45502 7.68991
23 1 6.11746 3.97657 7.00533
165 1 8.37248 4.59887 9.87463
136 1 8.59092 3.99977 11.1888
167 1 7.29611 4.01874 9.0757
171 1 7.85747 8.43649 1.61909
140 1 8.33872 8.22523 0.28661
142 1 7.95842 7.43129 2.73367
143 1 9.05757 6.56363 2.88122
144 1 6.852 7.17789 3.49679
148 1 6.91648 7.18491 4.91038
154 1 8.20235 7.14231 5.45004
153 1 8.41549 6.52285 6.6164
162 1 8.79145 7.46531 7.59813
184 1 8.48506 8.99527 7.52112
159 1 8.65397 6.85654 8.93225
74 1 6.11311 6.6826 8.99883
160 1 7.42034 7.06812 9.46975
169 1 6.61716 9.41298 1.82667
174 1 7.98997 10.784 3.18555
170 1 6.68039 10.0302 3.03481
177 1 8.72048 9.7012 6.25657
178 1 8.49735 11.1549 6.33767
180 1 8.05269 9.73475 8.69491
181 1 8.66248 11.0524 8.7149
104 1 6.84738 9.69692 9.57994
110 1 7.1187 9.65163 10.942
188 1 8.32772 9.30998 11.5944
115 1 10.848 1.52562 2.06587
112 1 10.2671 1.67205 0.812502
111 1 10.1701 1.95667 3.28422
120 1 9.96529 0.927935 4.16525
126 1 11.0898 0.146805 4.44335
127 1 10.1305 0.357779 7.81919
189 1 11.6089 0.264365 7.51891
131 1 9.52139 0.895138 9.08451
135 1 10.3149 1.98085 9.57251
119 1 9.80741 4.75557 1.22801
117 1 11.0107 4.31677 2.02748
113 1 9.51425 4.7592 -0.1271
146 1 10.891 4.494 3.47405
124 1 9.50427 3.72448 5.07396
128 1 10.1599 3.33521 3.91244
157 1 11.0305 5.84437 4.19807
122 1 11.7866 3.74874 6.21759
161 1 10.2109 4.86225 8.5334
155 1 9.72065 4.57159 7.33989
125 1 10.4265 3.88487 6.14836
133 1 11.5719 4.32317 8.84845
163 1 9.21237 5.54121 9.29788
132 1 11.5306 2.99819 9.47407
168 1 11.4884 7.78477 0.478698
145 1 9.11223 7.17132 -0.090852
149 1 9.22017 7.84567 4.73028
138 1 9.97572 6.82124 4.03689
175 1 9.66287 9.09732 5.18024
152 1 12.1992 8.07565 6.5821
158 1 10.8473 7.25571 10.5371
164 1 11.0087 8.28606 9.70289
79 1 10.5242 7.25006 11.8911
172 1 10.1856 10.0646 4.32079
173 1 11.0566 11.0308 4.9287
179 1 9.35144 10.3823 3.22434
182 1 11.5376 10.0032 8.13205
186 1 11.6888 11.0003 7.2845
185 1 9.2194 11.5411 7.44823
187 1 10.59 10.4194 10.5894
190 1 11.446 11.4635 10.8698
183 1 10.8966 9.67823 9.34308
191 1 9.51406 9.98826 11.3786
ITEM: TIMESTEP
6000
ITEM: NUMBER OF ATOMS
191
ITEM: BOX BOUNDS pp pp pp
-1.4964857666271711e-01 1.2149648576662623e+01
-1.4964857666271711e-01 1.2149648576662623e+01
-1.4964857666271711e-01 1.2149648576662623e+01
ITEM: ATOMS id type x y z
4 1 1.67048 2.78699 1.42605
116 1 -0.153502 1.21171 2.61878
12 1 1.08182 0.551584 4.77841
118 1 0.00219604 0.650474 3.94114
11 1 0.7197 0.665525 7.25277
32 1 1.47228 0.684201 8.53207
31 1 2.80889 0.717695 9.062
17 1 2.54701 2.04486 6.10205
13 1 1.30415 1.3351 5.98614
28 1 0.685986 0.910475 9.71745
38 1 2.89467 1.97382 10.8839
30 1 1.62033 2.73827 10.9201
29 1 0.562744 2.29376 10.0956
105 1 -0.0754808 -0.012405 10.5218
7 1 0.247008 4.7934 1.46681
6 1 0.960763 3.76582 0.696835