ITEM: TIMESTEP
1000
ITEM: NUMBER OF ATOMS
191
ITEM: BOX BOUNDS pp pp pp
0.0000000000000000e+00 1.2000000000000000e+01
0.0000000000000000e+00 1.2000000000000000e+01
0.0000000000000000e+00 1.2000000000000000e+01
ITEM: ATOMS id type x y z
12 1 1.20509 0.848646 4.8824
1 1 2.45416 2.21262 3.44646
118 1 0.0568909 0.931156 4.21542
31 1 2.7963 1.20012 8.59879
32 1 1.33362 1.11411 8.47168
11 1 0.524598 1.20419 7.34151
17 1 2.71238 2.40746 6.16634
13 1 1.38231 1.67759 6.10224
28 1 0.600435 1.06936 9.68613
29 1 0.380463 2.49177 10.0643
30 1 1.54051 2.88833 10.6729
38 1 2.76966 2.1392 10.5977
4 1 2.18611 3.42645 1.49308
6 1 1.37529 4.1638 0.681185
7 1 0.316389 4.7799 1.23673
5 1 2.72351 3.38718 2.80547
53 1 0.358511 5.83537 4.1516
14 1 2.48962 3.77126 6.47623
22 1 1.04066 4.12647 6.92577
63 1 0.861504 4.89394 8.19573
34 1 1.60511 4.1806 11.3394
64 1 1.84804 5.17285 10.4568
66 1 1.97643 4.87993 9.13738
39 1 0.181589 8.50532 0.712513
43 1 2.65505 8.15867 0.868042
42 1 1.41328 7.99508 1.5577
45 1 0.410238 6.0196 1.6437
40 1 0.607622 6.50916 2.98891
41 1 1.37971 7.70322 2.91852
54 1 2.3679 6.52629 5.21292
50 1 2.14686 8.46843 3.69532
52 1 1.04645 6.21113 5.25484
60 1 2.43505 7.90596 4.88676
59 1 0.319578 6.54721 6.41356
67 1 1.82448 7.31926 8.10585
71 1 0.824954 6.39916 7.65354
108 1 1.50378 8.72625 8.5489
75 1 1.63839 8.73584 10.9
76 1 2.39605 7.75422 11.4558
77 1 2.36185 6.3648 11.1126
89 1 1.68557 10.4378 0.778156
84 1 1.26087 10.293 2.26055
96 1 1.39937 10.5244 5.80047
21 1 1.92503 11.6793 5.0829
83 1 1.97272 9.86486 3.45811
109 1 0.460584 9.13924 7.92927
107 1 1.96788 9.23301 9.68906
80 1 0.964113 9.47731 11.8748
3 1 3.46182 1.23958 3.5408
16 1 4.12741 0.164967 5.50129
2 1 4.94593 1.47411 3.18049
9 1 5.79569 2.82726 7.153
24 1 5.70492 2.43076 8.65892
26 1 5.83625 0.933983 8.58776
10 1 5.33926 2.06308 6.16372
18 1 3.95423 1.52412 6.0336
25 1 3.47206 2.22466 9.36298
36 1 3.1563 1.05003 11.3995
48 1 4.33373 4.65548 0.709691
44 1 5.99016 5.22315 2.44868
46 1 4.83482 4.57961 2.03733
8 1 3.91788 4.06314 2.96916
58 1 5.89245 4.77236 5.62939
56 1 5.05263 5.94244 5.47293
51 1 3.61934 5.79543 5.77172
70 1 3.40603 5.25056 8.37877
57 1 3.29911 4.88631 6.83742
78 1 5.12797 4.29346 11.5245
68 1 4.40579 4.42649 9.42396
69 1 5.059 5.21573 10.3426
27 1 4.47806 3.0505 9.22505
47 1 5.19546 7.94796 2.43487
82 1 4.90455 8.78538 1.39948
92 1 5.0144 8.61295 3.70179
55 1 5.95341 7.18716 5.53858
73 1 4.19161 7.74413 8.55678
62 1 5.53684 7.49362 7.95057
65 1 3.19209 6.8109 8.4114
61 1 5.63671 8.06901 6.60218
72 1 5.55993 6.5066 10.3029
81 1 5.54413 7.76087 11.0694
88 1 3.49987 11.0428 2.1632
85 1 3.16455 10.4098 1.00517
91 1 5.91697 9.71594 1.04399
90 1 3.67653 9.11918 1.0001
94 1 5.51007 11.7138 5.47563
97 1 5.54044 10.2859 5.25334
87 1 3.11333 10.7168 3.43176
20 1 3.18504 11.8843 4.2963
95 1 5.89847 9.73487 4.04418
93 1 5.64775 9.60237 6.45837
100 1 5.39615 10.4731 7.59658
101 1 5.51693 9.71445 8.84227
106 1 4.93343 11.8978 7.96221
33 1 3.59975 11.9983 8.55921
98 1 3.50555 11.1841 9.68144
103 1 3.22428 11.7935 10.9441
99 1 3.27887 9.79207 9.59418
102 1 4.32834 9.07969 9.01661
114 1 8.60925 1.0636 0.341457
15 1 6.28686 1.03729 5.36838
19 1 6.14573 1.31933 3.9212
121 1 7.76238 0.614062 5.91285
128 1 8.88866 2.97665 3.70562
129 1 8.35478 0.18746 9.37563
130 1 8.26103 2.13424 11.4211
137 1 7.02759 0.504277 9.32774
134 1 6.96563 2.54662 10.8961
35 1 6.87822 2.8466 9.43909
147 1 8.12484 3.78741 2.81579
139 1 8.95702 4.71955 2.11283
141 1 6.86754 4.534 3.29409
150 1 8.14886 4.52859 5.47536
156 1 6.87198 4.6036 4.71775
151 1 8.27125 5.07366 6.80782
166 1 7.22697 4.60737 7.64401
23 1 6.11789 4.13615 6.99852
167 1 7.57641 4.01855 8.90824
165 1 8.33637 4.89564 9.7276
37 1 6.09022 3.28999 11.648
49 1 6.32647 6.66491 2.15676
140 1 7.99375 7.68454 0.383597
142 1 8.58072 7.38481 2.5869
145 1 6.96274 6.67636 0.681379
171 1 8.11027 8.45739 1.63405
144 1 7.31434 7.04926 3.2988
148 1 7.18411 7.1601 4.73754
154 1 8.35935 7.1502 5.53352
153 1 8.1698 6.55922 6.73473
162 1 8.58165 7.49694 7.74916
184 1 8.14193 8.93666 7.51019
188 1 7.99517 8.26872 11.0671
74 1 6.48352 6.90777 9.14608
160 1 7.81743 7.2395 9.89896
169 1 7.09657 9.53003 1.87342
174 1 7.97704 10.9841 3.56656
170 1 6.93637 10.1165 3.21665
177 1 8.34338 9.55504 6.12299
178 1 8.10362 11.1346 6.34415
180 1 7.89147 9.70405 8.60484
181 1 8.60636 10.9521 8.71045
185 1 8.91145 11.4014 7.40967
104 1 6.73251 9.58153 9.41521
110 1 6.49943 9.08283 10.8292
86 1 6.07477 10.1283 11.7812
115 1 10.3233 1.23323 2.44296
116 1 11.6482 0.993539 2.82226
112 1 9.70433 1.22206 1.2498
111 1 9.4857 1.66562 3.53701
126 1 10.9251 0.207048 4.75638
120 1 9.76984 1.11383 4.82804
123 1 9.07273 1.35593 5.95414
127 1 9.85358 0.871564 7.35898
189 1 11.3665 0.497339 7.24559
131 1 9.26943 1.27343 8.8753
135 1 9.92736 2.45712 9.72437
136 1 9.31994 2.91918 10.9834
105 1 11.8296 0.0101488 10.1355
119 1 10.0568 4.12402 1.1601
117 1 11.2913 4.10232 1.87838
157 1 11.3328 4.9189 4.17809
124 1 9.18021 3.70881 5.01453
146 1 11.3855 3.97031 3.30822
138 1 10.2186 5.74187 3.89366
161 1 10.2777 4.94223 8.31128
155 1 9.72347 4.77316 7.05922
133 1 11.4486 4.36918 8.8939
122 1 11.7791 3.7662 6.22739
125 1 10.4313 4.01175 6.05778
163 1 9.44619 5.61201 9.18789
113 1 9.86272 3.82653 11.855
132 1 11.2015 3.12199 9.46298
143 1 9.41135 6.11047 2.82495
168 1 11.139 7.60473 0.563201
149 1 9.69535 7.6531 5.41856
152 1 10.827 7.13612 6.19421
159 1 9.168 7.09184 8.9772
158 1 11.2905 7.02504 10.2119
164 1 10.4181 7.84684 9.49228
79 1 11.2299 6.74242 11.5198
172 1 10.0074 10.0659 4.56232
173 1 11.0291 10.7553 5.07982
175 1 9.42791 9.05859 5.30838
179 1 9.28849 10.6904 3.58403
182 1 11.2861 9.8532 8.11419
186 1 11.4828 11.032 7.29613
176 1 11.9937 10.5963 6.03074
187 1 10.2157 9.88624 10.5578
190 1 10.9942 11.1135 10.7664
183 1 10.5117 9.3033 9.2034
191 1 9.03 9.33326 11.045
ITEM: TIMESTEP
2000
ITEM: NUMBER OF ATOMS
191
ITEM: BOX BOUNDS pp pp pp
-1.1234852603454049e-01 1.2112348526034552e+01
-1.1234852603454049e-01 1.2112348526034552e+01
-1.1234852603454049e-01 1.2112348526034552e+01
ITEM: ATOMS id type x y z
4 1 1.72599 2.7957 1.39905
12 1 1.28918 0.596158 4.85436
118 1 0.208704 0.330876 3.96767
13 1 1.29895 1.35514 6.12509
31 1 2.72774 0.963102 8.71917
32 1 1.23992 0.793148 8.57398
11 1 0.573813 0.832333 7.27221
17 1 2.60534 2.15268 6.09494
28 1 0.31201 0.984667 9.7363
38 1 2.69453 2.05827 10.7755
30 1 1.43235 2.72727 11.0132
29 1 0.313858 2.38511 10.1527
7 1 0.508188 4.78886 1.55288
6 1 1.05243 3.77732 0.738193
45 1 1.16737 5.74382 2.17357
14 1 2.27859 3.56875 6.6692
22 1 0.882203 3.88933 7.06635
63 1 0.680758 4.69867 8.34757
34 1 1.38813 3.99622 11.6675
64 1 1.88478 5.079 10.8196
66 1 1.87744 4.75911 9.35981
39 1 0.081705 8.67536 0.976946
43 1 2.30334 8.00607 0.858833
42 1 1.16886 8.16068 1.71245
54 1 2.36793 6.5158 5.51916
50 1 2.11462 8.69482 3.86926
52 1 0.948569 6.26929 5.58134
53 1 0.32338 6.25998 4.3374
60 1 2.64918 7.87058 4.93441
40 1 1.07069 6.56545 3.23875
41 1 1.28595 7.82396 3.00554
108 1 1.4126 8.46166 8.60157
67 1 1.86028 7.15133 8.32381
71 1 0.745099 6.22764 8.05521
59 1 0.182463 6.57706 6.83924
77 1 2.14264 6.40531 11.3154
76 1 1.81931 7.63122 11.6675
75 1 1.2585 8.87881 11.0658
89 1 1.46555 10.6773 0.882579
84 1 1.27249 10.6597 2.19794
80 1 0.692858 9.60125 0.0155725
96 1 1.06384 10.4422 5.66137
21 1 1.86539 11.4872 5.2682
83 1 2.03932 10.1274 3.25453
109 1 0.281021 9.13173 8.12489
107 1 1.91245 9.20507 9.7907
3 1 4.74053 0.513831 1.93477
1 1 3.78334 1.41988 1.69311
2 1 5.93938 0.792416 2.43534
5 1 3.03214 2.46827 2.11077
16 1 4.12102 0.0269798 5.51013
18 1 3.89407 1.4485 5.81869
26 1 5.92809 0.858342 8.79521
24 1 5.57373 2.36771 8.58309
10 1 5.0572 2.04989 6.21821
9 1 5.7586 2.77344 7.19573
25 1 3.21085 2.18713 9.42517
36 1 2.92922 0.928799 11.5715
48 1 4.18778 4.80772 0.619199
44 1 5.54967 5.21994 2.7184
46 1 4.53735 4.51116 1.98489
8 1 3.88856 3.49887 2.59526
56 1 5.03387 5.59875 5.51394
58 1 5.94155 4.50183 5.73799
51 1 3.48159 5.64147 5.84439
70 1 3.19159 5.22818 8.60476
57 1 3.16216 4.65742 7.00453
78 1 4.91106 4.58193 11.684
68 1 4.23544 4.41565 9.32169
69 1 4.755 5.20977 10.3413
37 1 5.78012 3.53286 11.6429
27 1 4.28395 3.00265 9.13956
47 1 4.9973 7.80772 2.33523
82 1 4.71502 8.69964 1.3433
49 1 5.83808 6.61457 2.24043
90 1 3.32165 9.04051 0.946668
55 1 5.79677 7.0883 5.49566
92 1 4.97642 8.45172 3.68866
73 1 4.06775 7.72937 8.6422
62 1 5.52439 7.50796 8.04556
61 1 5.73104 8.04183 6.66038
65 1 3.20018 6.7805 8.51963
102 1 4.26692 9.10587 9.18866
72 1 5.36421 6.4304 10.16
81 1 5.47688 7.62816 10.9408
88 1 3.81534 11.223 2.19473
85 1 3.09399 10.6751 0.57892
91 1 5.76684 9.55846 1.07048
20 1 3.18496 11.6314 4.54809
94 1 5.54105 11.7971 5.36536
97 1 5.6605 10.264 5.28744
87 1 3.2482 10.8223 3.37789
95 1 5.73482 9.63794 4.01322
93 1 5.41874 9.54579 6.45638
100 1 5.29873 10.7505 7.80494
101 1 5.38325 9.94274 8.84649
33 1 3.57778 12.0829 8.95029
106 1 4.8695 12.2002 8.27085
98 1 3.32086 11.1293 10.0508
99 1 3.25294 9.71652 9.9508
103 1 3.18511 11.632 11.4589
86 1 5.89218 10.0232 11.8968
114 1 8.74968 1.89346 0.445752
15 1 6.76215 0.259532 4.91842
19 1 6.75401 0.647868 3.42977
121 1 8.0524 0.150274 5.57378
129 1 8.36391 0.516073 9.42488
130 1 8.1889 2.59112 11.514
137 1 6.92387 0.575713 9.82875
134 1 6.80558 2.80241 11.0819
147 1 7.78451 4.72501 2.33037
139 1 9.03848 5.42328 2.03639
141 1 6.6098 4.55018 3.32022
150 1 8.21745 3.76388 4.8289
156 1 6.92544 4.37966 4.7069
151 1 8.55435 5.30542 6.93392
166 1 7.52918 4.49941 7.66374
23 1 6.30253 4.04591 7.09436
167 1 7.6024 4.02788 8.99712
165 1 8.7026 4.38128 9.8463
35 1 6.67861 3.05683 9.49681
171 1 7.89793 8.51922 1.3841
140 1 7.58298 7.58556 0.248718
142 1 8.20277 7.55996 2.46187
145 1 6.54605 6.6017 0.626452
144 1 6.99779 7.12116 3.26721
148 1 7.00062 6.93413 4.72064
154 1 8.25734 7.08872 5.38389
153 1 8.44924 6.69705 6.65992
162 1 8.488 7.54526 7.71634
184 1 8.41113 9.00755 7.62411
188 1 7.78063 8.18831 11.0689
160 1 7.58179 7.19431 9.79626
74 1 6.34051 6.78994 9.15218
110 1 6.4942 8.94864 10.8986
169 1 7.02423 9.44916 1.75891
174 1 8.01466 10.7924 3.49697
170 1 6.89641 10.0066 3.12138
177 1 8.84575 9.70659 6.20763
178 1 8.68259 11.1113 6.25533
180 1 7.90645 9.86042 8.66782
181 1 8.55821 11.2768 8.7076
104 1 6.60212 9.62977 9.43577
191 1 8.98574 9.35418 10.8772
115 1 10.8837 1.47126 2.13526
112 1 9.84354 1.33666 1.0344
116 1 12.2048 0.904854 2.70544
111 1 10.2264 2.09822 3.37314
126 1 11.1693 0.0501289 4.58663
120 1 10.1462 1.1365 4.55789
123 1 9.01964 1.12106 5.37712
127 1 10.2236 0.654556 7.87837
189 1 11.5129 0.23293 7.52121
131 1 9.54484 1.40293 9.02799
135 1 10.1301 2.43114 9.85809
105 1 11.7021 -0.0757405 10.1935
119 1 9.99957 4.74986 1.10185
117 1 11.2691 4.65786 1.77538
157 1 11.2086 5.82364 3.94714
124 1 9.6987 3.70388 5.01819
146 1 11.0939 4.51771 3.24518
128 1 10.4934 3.39671 3.85509
161 1 10.4706 5.17431 8.52129
155 1 9.88234 4.76675 7.15263
122 1 11.8993 3.89686 6.32013
125 1 10.5505 4.07107 6.13025
133 1 11.5917 4.41247 9.00025
163 1 9.35543 5.55158 9.20925
113 1 9.81307 4.25892 12.0027
136 1 9.25211 3.37496 10.7965
132 1 11.42 3.10312 9.61193
143 1 9.30242 6.65116 2.75288
168 1 11.0861 8.0447 0.787633
149 1 9.41302 7.66163 4.7887
138 1 10.1011 6.76203 3.83811
175 1 9.58777 9.03582 5.12652
152 1 11.2755 7.54022 6.79357
159 1 9.02468 7.07992 9.13459
158 1 11.1941 7.44992 10.5106
164 1 10.3881 7.95576 9.35807
79 1 10.7547 7.44815 11.7921
172 1 10.221 10.1085 4.30171
173 1 11.1022 10.9233 4.85235
179 1 9.37394 10.793 3.47267
176 1 11.8951 10.544 5.82304
182 1 11.3732 9.92087 8.16975
186 1 11.4825 10.9799 7.24627
185 1 9.36874 11.6721 7.50634
187 1 10.0615 9.95304 10.2253
190 1 10.746 11.2006 10.4964
183 1 10.5316 9.29594 9.15381
ITEM: TIMESTEP
3000
ITEM: NUMBER OF ATOMS
191
ITEM: BOX BOUNDS pp pp pp
-2.3926342790880889e-01 1.2239263427908854e+01
-2.3926342790880889e-01 1.2239263427908854e+01
-2.3926342790880889e-01 1.2239263427908854e+01
ITEM: ATOMS id type x y z
12 1 0.917307 0.494107 4.83114
118 1 -0.233821 0.724604 3.99381
31 1 2.7076 0.843885 8.96424
32 1 1.21275 0.649846 8.68522
11 1 0.567778 0.414004 7.41954
17 1 2.2478 1.83621 6.41947
13 1 1.14433 0.980131 6.1859
28 1 0.292374 0.814431 9.67009
38 1 2.54658 1.77299 10.9364
30 1 1.21526 2.52129 11.105
29 1 0.126228 2.10447 10.1831
36 1 2.76808 0.462716 11.5986
7 1 -0.0263031 4.60962 1.41528
6 1 0.919118 3.81816 0.664298
45 1 0.763308 5.65999 2.14969
4 1 1.76423 3.18572 1.57469
14 1 1.90855 3.30511 6.89566
22 1 0.579768 3.78872 7.15724
63 1 0.472273 4.74056 8.47985
57 1 2.86256 4.48449 7.17688
34 1 1.17894 3.77707 11.7121
64 1 1.38349 4.92408 10.8257
66 1 1.55871 4.67398 9.57451
39 1 0.323514 8.57872 0.860689
42 1 1.48922 8.06286 1.42791
43 1 2.67169 8.11631 0.597929
41 1 1.55172 7.84318 2.71888
54 1 2.73889 7.20656 5.40332
50 1 2.2638 8.80491 3.53845
52 1 1.00378 6.75552 5.43
40 1 1.01629 6.61205 3.19477
53 1 0.343009 6.3061 4.34327
108 1 1.41596 8.41514 9.01842
67 1 1.66078 7.13753 8.66935
71 1 0.686672 6.13265 8.04028
59 1 0.236849 6.58008 6.72549
109 1 0.40204 8.88314 8.12393
75 1 1.42135 8.75028 11.3013
76 1 2.10728 7.53991 11.7734
77 1 1.72568 6.13216 11.5363
107 1 1.94457 9.09735 10.0547
89 1 1.70995 10.4714 0.549313
84 1 1.47167 10.4734 1.98084
80 1 0.881508 9.57601 -0.182276
96 1 1.04921 10.74 5.42662
21 1 1.67781 11.8112 4.84002
83 1 2.31841 10.0776 2.96906
3 1 4.19042 0.353898 1.72321
1 1 3.41967 1.5027 2.17639
5 1 2.99935 2.84899 2.19245
2 1 5.4741 0.448318 2.30622
16 1 4.00776 0.0666403 5.32288
10 1 4.86931 2.04778 6.68163
24 1 5.50005 2.78848 8.82506
26 1 5.92347 0.345873 8.44796
9 1 5.65216 2.87067 7.41558
18 1 3.69927 1.33029 6.21945
25 1 3.2707 1.95253 9.66276
37 1 5.64446 2.82083 11.8088
48 1 4.69445 4.878 0.525067
8 1 3.77064 3.89293 2.41805
46 1 4.59435 4.86944 1.85844
44 1 5.7274 5.49542 2.57583
56 1 4.93173 5.80304 5.91071
58 1 5.81367 4.64705 5.51852
70 1 3.06836 5.19808 8.75159
51 1 3.61788 5.78677 6.33518
78 1 4.93765 4.16564 11.8579
68 1 3.9916 4.3408 9.53453
69 1 4.9627 4.89312 10.5814
72 1 5.72179 5.98654 10.4947
27 1 4.17554 2.90536 9.34283
47 1 4.874 8.05419 2.61145
82 1 4.7471 8.99058 1.51341
49 1 5.72984 6.90574 2.82066
55 1 5.70895 7.12422 5.90087
92 1 4.77258 8.54612 3.85713
60 1 3.06759 8.14829 4.54728
65 1 3.07407 6.72016 8.90176
62 1 5.48243 7.46353 8.37075
61 1 5.49113 8.08285 7.00005
73 1 4.1274 7.59716 8.99119
102 1 4.22252 9.02059 9.41405
88 1 3.61245 11.6142 1.7571
91 1 5.88691 9.61461 0.88607
85 1 3.17184 10.7018 0.413415
90 1 3.58789 9.2707 0.694631
95 1 5.80576 9.50916 4.26038
94 1 5.33022 11.6759 5.27493
97 1 5.673 10.2381 5.40363
87 1 3.22206 11.2495 3.13775
20 1 3.07979 11.8395 4.36926
93 1 5.30367 9.58952 6.60609
100 1 5.2103 10.424 7.82492
106 1 4.87221 11.8645 8.08126
33 1 3.71513 12.1143 9.09705
101 1 5.38136 9.66221 9.02073
98 1 3.33196 11.0754 10.0986
99 1 3.21848 9.65263 9.93786
103 1 3.19381 11.6086 11.5224
114 1 9.11083 2.14251 0.049876
19 1 6.19046 0.625425 3.41828
123 1 8.71705 0.733056 4.4666
15 1 6.54646 0.00471321 4.85326
121 1 7.9527 -0.104117 5.31067
129 1 8.44122 0.222359 9.05128
130 1 8.32814 2.71502 11.5092
134 1 6.88977 2.6264 10.9966
137 1 7.05874 0.454762 9.17421
147 1 7.82026 4.5938 2.16866
139 1 8.87742 5.49043 1.85929
141 1 6.75546 4.66435 3.15805
150 1 8.22555 4.08049 4.99977
156 1 6.90171 4.46005 4.53815
151 1 8.448 5.45567 7.09826
166 1 7.27986 4.65422 7.73883
23 1 6.30823 4.02338 6.79864
167 1 7.52293 4.22222 9.06898
165 1 8.56295 4.68656 10.0192
136 1 8.87232 4.06384 11.2228
35 1 6.60282 3.22873 9.57259
171 1 7.77414 8.36311 1.52762
140 1 7.95656 7.86287 0.121453
142 1 8.07592 7.5412 2.73748
145 1 7.30504 6.62223 -0.0698663
144 1 6.88083 7.33014 3.5394
148 1 6.93431 7.29169 4.96238
154 1 8.20221 7.19918 5.45292
153 1 8.35657 6.85899 6.68694
162 1 8.68818 7.91678 7.68421
188 1 8.07948 8.71222 11.0954
160 1 7.75842 7.602 9.99369
74 1 6.55336 6.88646 9.51838
81 1 6.08204 6.52352 11.7367
169 1 6.98535 9.52484 1.79544
174 1 8.1274 10.9135 3.19212
170 1 6.9614 10.0208 3.18485
177 1 8.58379 9.85751 6.03135
178 1 8.64102 11.2396 6.04947
180 1 7.94817 10.1267 8.4919
181 1 8.6134 11.3998 8.46499
184 1 8.44522 9.27391 7.42883
104 1 6.70157 9.763 9.45775
110 1 6.99382 9.67143 10.8098
86 1 6.17411 9.93273 11.902
115 1 10.8944 1.66669 2.0433
112 1 10.093 2.01175 0.916014
116 1 12.0793 1.20075 2.69064
111 1 10.2726 2.24831 3.38333
126 1 11.1224 0.0342733 4.41512
120 1 10.0335 1.03175 4.26515
127 1 10.4422 0.192625 7.77942
131 1 9.70585 0.97665 8.68805
135 1 10.2978 2.01113 9.36403
132 1 11.6041 2.79426 9.52907
119 1 9.9102 4.75057 1.08073
117 1 11.1144 4.56216 1.84747
128 1 10.2373 3.65387 3.78587
124 1 9.58233 3.75205 5.06677
146 1 10.9396 4.66388 3.23287
157 1 11.4068 5.80472 3.97571
161 1 10.4055 4.9266 8.61996
155 1 9.75984 4.94214 7.22312
122 1 11.9061 3.93991 6.37335
125 1 10.4522 4.24857 6.18504
133 1 11.572 4.1432 8.90125
163 1 9.42313 5.53462 9.43774
113 1 9.62716 4.82445 12.2014
168 1 11.8164 7.74585 0.663745
143 1 9.16124 6.74105 2.64931
149 1 9.358 7.94866 4.82502
138 1 10.2346 6.82816 3.87148
152 1 11.4353 7.02623 6.62218
159 1 9.15933 7.19792 9.06589
158 1 10.871 7.08544 10.744
79 1 11.1328 7.01727 12.0663
164 1 10.4289 7.81438 9.64789
172 1 10.079 10.2506 4.27026
173 1 11.184 10.9926 4.65688
175 1 9.39969 9.28125 5.01278
176 1 12.1449 10.5713 5.80301
179 1 9.41985 10.518 3.0672
182 1 11.6694 9.7614 8.1456
186 1 11.6911 10.8187 7.18366
189 1 11.7792 12.2091 7.48635
185 1 9.34475 11.7063 7.19344
187 1 10.2976 10.1539 10.3443
190 1 11.3161 11.1212 10.6225
191 1 9.19184 9.58032 10.8843
105 1 12.109 12.1225 10.1317
183 1 10.7474 9.16542 9.14823
ITEM: TIMESTEP
4000
ITEM: NUMBER OF ATOMS
191
ITEM: BOX BOUNDS pp pp pp
-1.9773896763511697e-01 1.2197738967635155e+01
-1.9773896763511697e-01 1.2197738967635155e+01
-1.9773896763511697e-01 1.2197738967635155e+01
ITEM: ATOMS id type x y z
4 1 1.91198 2.87763 1.51085
12 1 0.868106 0.61801 4.9426
118 1 -0.102842 0.842094 3.90144
17 1 2.339 2.19948 6.21403
32 1 1.20088 0.676795 8.6898
11 1 0.612084 0.75858 7.30425
31 1 2.62967 0.917979 8.84381
13 1 1.13148 1.32194 6.21481
28 1 0.396197 0.873942 9.80758
38 1 2.51375 1.8989 11.0315
30 1 1.20613 2.52551 11.237
29 1 0.214415 2.19561 10.3054
7 1 0.204133 4.6594 1.52165
6 1 0.966804 3.8124 0.771766
45 1 0.884449 5.76366 1.93211
14 1 2.15874 3.6005 6.63276
22 1 0.781426 3.9098 7.08065
63 1 0.408718 4.75379 8.37679
34 1 1.35128 3.84958 11.7935
64 1 1.54128 4.99442 10.9532
66 1 1.34705 4.69062 9.55812
39 1 0.0702605 8.30452 0.654247
42 1 1.3732 8.08346 1.27898
43 1 2.45949 8.12976 0.395034
41 1 1.41461 7.90049 2.69405
54 1 2.67944 6.7394 5.00814
50 1 2.27505 8.71998 3.36097
52 1 1.28968 6.45597 5.24076
53 1 0.384792 6.37993 4.23453
40 1 0.914521 6.6544 3.06409
108 1 1.12724 8.44268 8.73546
67 1 1.60138 7.05547 8.64845
71 1 0.720519 6.30991 7.77699
59 1 0.635307 6.78219 6.43549
109 1 0.267888 8.88926 7.73613
152 1 0.0537148 8.03032 6.61879
77 1 1.80744 6.25214 11.4241
76 1 1.92956 7.68107 11.5558
75 1 0.975771 8.82827 11.0886
89 1 0.439971 10.5962 0.532466
84 1 0.988673 10.5645 1.87893
83 1 1.93415 10.2539 2.88789
80 1 0.415208 9.38607 -0.16692
96 1 0.654051 10.6162 5.11891
21 1 1.61984 11.7311 4.86792
107 1 1.59031 9.26984 9.89087
3 1 4.47933 0.315684 2.12683
1 1 3.79788 1.44547 2.19518
5 1 3.14073 2.62288 2.00458
2 1 5.80799 0.253704 2.60712
16 1 4.05684 0.0493054 5.21843
18 1 3.72214 1.48377 5.96253
10 1 4.9208 1.94249 6.57281
26 1 5.76134 0.502326 8.43839
9 1 5.76609 2.87857 7.4486
25 1 3.27899 2.09433 9.59918
36 1 2.96665 0.523226 11.7775
48 1 4.61355 4.86624 0.676315
8 1 3.83181 3.72903 2.41839
46 1 4.68644 4.66629 1.98835
44 1 5.72391 5.31067 2.90953
56 1 5.15433 5.97342 5.80687
51 1 3.72429 5.76018 5.90571
70 1 3.48394 5.41915 8.44151
57 1 3.1808 4.7347 6.8834
24 1 5.5797 2.92357 8.92243
78 1 4.77715 4.42273 11.7464
68 1 4.24072 4.69161 9.40423
69 1 4.84822 5.339 10.6062
37 1 5.51876 3.24433 11.7776
27 1 4.30049 3.1962 9.35644
47 1 4.65723 7.75679 2.55197
82 1 4.59304 8.64324 1.38705
60 1 3.23444 7.86836 4.25166
92 1 4.52884 8.42415 3.80827
55 1 5.82131 7.23445 5.82997
49 1 5.65145 6.67214 2.91294
65 1 3.06913 6.76558 8.84898
62 1 5.52443 7.64064 8.20586
61 1 5.71079 8.33992 6.82874
73 1 4.1095 7.637 8.78329
72 1 6.01392 6.2122 10.3331
102 1 4.13297 9.02045 9.41439
88 1 3.79628 11.415 1.814
85 1 3.33759 10.6644 0.564369
90 1 3.47945 9.15752 0.704179
91 1 5.86999 9.17824 0.985107
95 1 5.44399 9.47311 4.09948
94 1 5.17535 11.6556 5.28414
97 1 5.11933 10.1607 5.41907
20 1 2.92374 11.5677 4.40755
87 1 3.04735 11.0897 3.0234
93 1 5.25703 9.7129 6.71492
100 1 5.17075 10.5651 7.84276
106 1 4.78211 11.9716 8.16217
98 1 3.32618 11.1205 10.2926
99 1 2.99604 9.68696 10.0223
103 1 3.18405 11.5486 11.6557
33 1 3.51806 12.001 9.11195
101 1 5.24475 9.88048 9.14925
114 1 9.04073 2.18826 0.104281
123 1 8.67151 0.901721 5.16142
121 1 7.90295 -0.218616 5.56524
15 1 6.46862 -0.141397 4.97013
137 1 6.89095 0.699232 9.09137
134 1 6.73771 2.90776 11.2086
129 1 8.4152 0.288185 9.48302
147 1 7.90289 4.49081 2.56138
141 1 6.82976 4.62795 3.40586
150 1 8.36085 3.62634 4.96961
156 1 6.97554 4.26171 4.84227
58 1 6.00884 4.76813 5.92315
151 1 8.63602 5.31308 7.13154
166 1 7.73755 4.55366 7.85013
23 1 6.46404 4.07493 7.15797
165 1 8.66792 4.6107 10.0257
35 1 6.72953 3.23954 9.59319
136 1 8.73393 4.20101 11.3091
130 1 8.11829 3.00079 11.6446
167 1 7.73402 4.01966 9.1893
171 1 8.01366 8.2795 1.57628
140 1 8.21993 7.831 0.366114
142 1 8.11204 7.29153 2.56794
144 1 7.03317 7.1681 3.40094
148 1 7.04044 7.32799 4.7876
154 1 8.33286 6.97493 5.43416
153 1 8.48987 6.64725 6.88001
162 1 8.56439 7.64023 7.69544
184 1 8.1426 9.07023 7.68104
188 1 8.13813 8.79053 10.6979
160 1 7.90735 7.59153 9.80827
74 1 6.54723 7.21881 9.34134
81 1 6.59583 6.38945 11.5622
145 1 7.69311 6.75769 12.1666
169 1 6.92254 9.1468 1.83682
174 1 7.56772 10.9395 3.22751
170 1 6.55576 9.81396 3.05507
179 1 8.78853 10.7516 3.42716
19 1 6.73002 12.0992 3.54557
181 1 8.52388 11.3801 8.84868
178 1 8.48385 11.1397 6.33228
180 1 7.65669 10.2841 8.67668
177 1 8.64009 9.62649 6.43403
104 1 6.56083 9.94733 9.53798
110 1 6.87842 9.53805 10.85
86 1 6.11482 9.37692 11.9789
115 1 10.7418 1.65612 2.07608
112 1 9.75718 1.3823 1.00506
116 1 12.1251 1.26596 2.6029
111 1 10.2281 2.47325 3.29498
120 1 9.73457 1.47864 4.31722
126 1 10.9656 0.309101 4.35086
127 1 10.2902 0.287926 7.79808
131 1 9.73321 1.12479 9.00847
189 1 11.7222 0.0217813 7.36836
135 1 10.4006 2.1894 9.56825
119 1 10.1321 4.74573 1.34261
117 1 11.3706 4.6956 2.0166
113 1 9.8506 4.48294 0.0120471
139 1 9.12527 5.157 2.18837
128 1 10.4004 3.65004 3.84813
124 1 9.75157 3.74301 5.06863
146 1 11.2162 4.6907 3.39585
157 1 11.351 6.00936 4.05714
161 1 10.4111 5.02578 8.53467
155 1 9.9711 4.86159 7.20948
122 1 12.0335 3.94127 6.14032
125 1 10.6003 3.97469 6.19239
133 1 11.4897 4.21576 8.93352
163 1 9.39218 5.57294 9.32142
132 1 11.5269 3.03699 9.71567
168 1 11.7443 7.22052 0.206306
143 1 9.1901 6.40559 2.87866
149 1 9.64741 7.65733 4.8648
138 1 10.1562 6.83991 3.84611
159 1 9.1726 7.23976 9.10793
158 1 11.2887 7.09507 10.1498
164 1 10.4924 7.85731 9.32406
79 1 11.5503 6.67117 11.3547
172 1 9.74252 10.1979 4.33524
173 1 10.741 11.2195 4.74588
176 1 11.7569 10.7107 5.63498
175 1 9.44221 9.15592 5.25148
182 1 11.6442 9.85994 7.89981
186 1 11.6489 10.9546 7.00362
185 1 9.25355 11.628 7.44462
183 1 10.782 9.20464 8.93016
187 1 10.5767 9.89361 10.3485
190 1 11.262 11.0349 10.5926
191 1 9.28533 9.50547 10.9994
105 1 12.0691 12.1453 10.3995
ITEM: TIMESTEP
5000
ITEM: NUMBER OF ATOMS
191
ITEM: BOX BOUNDS pp pp pp
-1.0575597377704689e-01 1.2105755973777043e+01
-1.0575597377704689e-01 1.2105755973777043e+01
-1.0575597377704689e-01 1.2105755973777043e+01
ITEM: ATOMS id type x y z
4 1 2.01402 2.71064 1.48797
12 1 0.892616 0.739497 4.92699
118 1 -0.140233 0.768956 3.95721
13 1 1.17909 1.33086 6.17644
32 1 1.51851 0.8071 8.58329
11 1 0.640592 0.701608 7.42017
17 1 2.45771 2.13855 6.23951
28 1 0.873768 1.00559 9.7337
38 1 2.92692 1.9569 10.8891
30 1 1.72684 2.75201 10.7883
29 1 0.62918 2.35001 10.0428
105 1 0.239107 0.00451615 10.4247
7 1 0.472977 4.45545 1.61378
6 1 1.18291 3.66895 0.772021
45 1 1.13306 5.33526 2.30602
14 1 2.29555 3.56742 6.65905
22 1 0.977872 3.89483 7.0601
63 1 0.683446 4.67547 8.24435
34 1 1.44032 3.82294 11.5652
64 1 1.60031 5.07011 10.9928
66 1 1.41765 4.86057 9.55414
43 1 2.34441 8.23135 0.763775
42 1 1.10338 7.98242 1.55738
41 1 1.51805 7.59371 2.79163
39 1 -0.123217 8.38368 0.859708
54 1 2.59772 6.64941 5.14239
50 1 2.25463 8.49367 3.51261
52 1 1.15365 6.40176 5.38193
53 1 0.295523 6.11283 4.30327
40 1 1.10096 6.32694 3.20032
108 1 1.27888 8.40291 8.56991
67 1 1.68746 7.05774 8.35239
71 1 0.738169 6.14332 7.76158
59 1 0.42624 6.82107 6.60195
109 1 0.308369 8.96618 7.74009
152 1 -0.00294077 8.15566 6.60022
77 1 1.89307 6.34654 11.4402
76 1 1.89976 7.67612 11.7282
75 1 1.18029 8.83361 11.0845
89 1 0.525995 10.5948 0.739427
84 1 1.14654 10.5462 1.98004
80 1 0.368632 9.48712 -0.0790042
83 1 2.01983 9.99984 3.00336
96 1 0.802087 10.6285 5.43494
21 1 1.59977 11.6515 4.98041
107 1 1.78122 8.94732 9.78391
3 1 4.75635 0.446773 2.17255
1 1 4.04414 1.61683 2.29894
5 1 3.0833 2.63349 2.44448
16 1 3.85412 0.263016 5.24715
18 1 3.73386 1.52704 5.91607
10 1 4.86168 2.43898 6.07622
31 1 2.88498 0.876509 8.76532
24 1 5.60269 2.80065 8.5241
25 1 3.55246 1.93144 9.56601
36 1 3.19088 0.719477 11.659
48 1 4.45393 4.67315 0.679317
8 1 3.47275 4.02599 2.81727
46 1 4.40245 4.92675 2.0604
44 1 5.58025 5.22689 2.64754
56 1 5.00275 5.88283 5.6092
51 1 3.60845 5.5989 5.74095
70 1 3.57308 5.24713 8.15346
57 1 3.19385 4.739 6.79745
9 1 5.53699 3.12127 7.08292
78 1 4.77167 4.22136 11.5253
68 1 4.16774 4.50883 9.24166
69 1 4.77022 5.02832 10.3739
37 1 5.91282 3.32942 11.5941
27 1 4.30093 3.05142 9.05268
47 1 4.74526 7.79312 2.67428
82 1 4.70382 8.64419 1.45765
49 1 5.75531 6.6877 2.67301
60 1 3.25458 7.88889 4.50935
92 1 4.52747 8.4452 3.89867
55 1 5.7636 7.22223 5.6325
73 1 4.07233 7.58579 8.81947
62 1 5.50999 7.38986 8.14721
61 1 5.58137 8.02095 6.79449
65 1 3.11469 6.59525 8.49382
102 1 4.19868 8.95636 9.54238
72 1 5.67393 6.12513 10.2492
88 1 3.8822 11.5241 1.96523
85 1 3.56193 10.7598 0.567983
90 1 3.4805 9.14301 0.873301
91 1 5.88896 9.28697 1.04688
95 1 5.47088 9.41152 4.2659
94 1 5.13002 11.6088 5.37208
97 1 5.29087 10.2196 5.51417
20 1 2.8858 11.698 4.4632
87 1 3.13276 11.0539 3.2339
93 1 5.21064 9.50954 6.77979
100 1 5.07124 10.4287 8.00271
106 1 4.79895 11.7193 8.43296
33 1 3.54593 11.846 9.08804
98 1 3.17356 11.0823 10.2339
103 1 3.25303 11.4956 11.5967
101 1 5.45088 9.53507 9.01885
99 1 3.05558 9.5803 9.93004
114 1 8.80978 2.19497 0.333361
2 1 6.05672 0.35152 2.47423
123 1 8.61738 1.23852 5.2447
121 1 7.82426 0.0280749 5.69936
15 1 6.3945 0.0546664 4.95052
26 1 5.94413 0.333953 8.66601
129 1 8.25273 0.317039 9.52272
137 1 6.90837 0.760615 9.52785
134 1 6.96485 3.02337 10.7531
130 1 8.2713 2.95663 11.3846
147 1 7.80275 4.49711 2.24306
141 1 6.79542 4.59464 3.20787
150 1 8.29272 3.89164 5.11438
156 1 6.978 4.41085 4.58086
58 1 6.0892 4.85405 5.63308
151 1 8.59963 5.31848 6.86928
166 1 7.61927 4.65255 7.46735
23 1 6.33931 4.24279 6.80576
167 1 7.67992 4.17035 8.80584
165 1 8.64693 4.72171 9.85705
136 1 9.1319 4.10241 11.0607
35 1 6.74278 3.17435 9.36598
171 1 8.02141 8.31268 1.53332
140 1 8.15609 8.13113 0.0516035
142 1 8.16358 7.31272 2.45004
145 1 7.50775 7.06978 -0.445584
144 1 7.04638 7.11345 3.35708
148 1 6.92467 7.32023 4.79155
154 1 8.22164 7.10333 5.37431
153 1 8.45835 6.71961 6.68733
162 1 8.54205 7.71497 7.66415
159 1 8.92718 7.21448 8.96814
160 1 7.55926 7.18234 9.51739
74 1 6.2234 6.73884 9.14601
81 1 6.28514 6.43452 11.4961
169 1 6.85156 9.16928 2.04244
174 1 7.59317 10.901 3.3626
170 1 6.64022 9.75967 3.26716
179 1 8.87509 10.6441 3.45251
19 1 6.68495 12.0367 3.62258
181 1 8.35662 11.3005 8.66993
178 1 8.48095 11.3 6.38466
180 1 7.8281 9.97455 8.54984
177 1 8.67208 9.68428 6.32043
184 1 8.29368 9.17125 7.52057
104 1 6.7511 9.60119 9.53228
110 1 7.09546 9.64611 10.8868
188 1 8.3182 9.25719 11.4962
86 1 6.06208 9.63111 11.8513
115 1 10.7357 1.84741 2.17231
112 1 9.92707 1.81292 0.958404
116 1 12.0049 1.38988 2.69846
111 1 10.0723 2.13862 3.37345
120 1 9.7038 1.07604 4.35802
126 1 10.8008 0.226656 4.45897
127 1 10.1763 0.461309 7.85379
189 1 11.5344 0.038159 7.60323
135 1 10.4894 2.18613 9.92992
131 1 9.81203 1.21201 9.21669
119 1 10.0956 4.74431 1.1914
117 1 11.3029 4.31254 1.84888
139 1 8.91729 5.29532 1.90038
128 1 10.3332 3.38063 4.00834
124 1 9.74482 3.73305 5.22934
146 1 10.9721 4.46408 3.26252
157 1 11.1456 5.87024 3.85048
161 1 10.5352 5.07455 8.4598
155 1 10.0807 5.08274 7.03673
122 1 11.9112 3.5559 6.49587
125 1 10.6506 4.0584 6.19857
133 1 11.3837 4.04501 8.90228
163 1 9.56419 5.76072 9.18787
132 1 11.5581 2.98085 9.71289
113 1 10.0273 4.57632 12.018
168 1 11.0256 7.46305 0.700863
143 1 9.23241 6.40337 2.66177
149 1 9.43772 7.70544 4.73805
138 1 10.0159 6.70149 3.76926
158 1 10.6004 7.31379 10.6037
164 1 10.1349 8.04294 9.53498
79 1 10.6066 6.98632 11.8407
172 1 9.87397 10.119 4.31094
173 1 10.8673 11.0196 4.76306
176 1 11.6631 10.6145 5.80897
175 1 9.39877 9.11729 5.16704
182 1 11.4649 9.86529 8.19569
186 1 11.3824 10.8417 7.22892
185 1 8.98232 11.7757 7.50589
187 1 10.6817 10.154 10.485
190 1 11.4787 11.3071 10.6236
191 1 9.56519 10.0142 11.2846
183 1 10.7208 9.35794 9.30607
ITEM: TIMESTEP
6000
ITEM: NUMBER OF ATOMS
191
ITEM: BOX BOUNDS pp pp pp
-1.0062682745834101e-01 1.2100626827458365e+01
-1.0062682745834101e-01 1.2100626827458365e+01
-1.0062682745834101e-01 1.2100626827458365e+01
ITEM: ATOMS id type x y z
4 1 1.77041 2.81098 1.72762
12 1 1.06842 0.684724 4.74285
118 1 -0.0147368 0.746179 3.79878
17 1 2.4474 2.27699 6.01044
11 1 0.655787 0.707756 7.14471
32 1 1.47515 0.871562 8.35303
13 1 1.06724 1.39376 6.01121
31 1 2.80421 0.806979 8.78399
28 1 0.599114 0.933829 9.50145
38 1 2.64313 1.96002 10.8364
30 1 1.44286 2.68692 11.0134
29 1 0.397456 2.30691 10.0903
7 1 0.383521 4.66442 1.5013
6 1 1.13346 3.68703 0.856715
45 1 1.16355 5.71576 2.0723
14 1 2.22141 3.6575 6.59545
22 1 0.901332 3.88748 7.08713