ITEM: TIMESTEP
1000
ITEM: NUMBER OF ATOMS
191
ITEM: BOX BOUNDS pp pp pp
0.0000000000000000e+00 1.2000000000000000e+01
0.0000000000000000e+00 1.2000000000000000e+01
0.0000000000000000e+00 1.2000000000000000e+01
ITEM: ATOMS id type x y z
12 1 1.20509 0.848646 4.8824
1 1 2.45416 2.21262 3.44646
118 1 0.0568909 0.931156 4.21542
31 1 2.7963 1.20012 8.59879
32 1 1.33362 1.11411 8.47168
11 1 0.524598 1.20419 7.34151
17 1 2.71238 2.40746 6.16634
13 1 1.38231 1.67759 6.10224
28 1 0.600435 1.06936 9.68613
29 1 0.380463 2.49177 10.0643
30 1 1.54051 2.88833 10.6729
38 1 2.76966 2.1392 10.5977
4 1 2.18611 3.42645 1.49308
6 1 1.37529 4.1638 0.681185
7 1 0.316389 4.7799 1.23673
5 1 2.72351 3.38718 2.80547
53 1 0.358511 5.83537 4.1516
14 1 2.48962 3.77126 6.47623
22 1 1.04066 4.12647 6.92577
63 1 0.861504 4.89394 8.19573
34 1 1.60511 4.1806 11.3394
64 1 1.84804 5.17285 10.4568
66 1 1.97643 4.87993 9.13738
39 1 0.181589 8.50532 0.712513
43 1 2.65505 8.15867 0.868042
42 1 1.41328 7.99508 1.5577
45 1 0.410238 6.0196 1.6437
40 1 0.607622 6.50916 2.98891
41 1 1.37971 7.70322 2.91852
54 1 2.3679 6.52629 5.21292
50 1 2.14686 8.46843 3.69532
52 1 1.04645 6.21113 5.25484
60 1 2.43505 7.90596 4.88676
59 1 0.319578 6.54721 6.41356
67 1 1.82448 7.31926 8.10585
71 1 0.824954 6.39916 7.65354
108 1 1.50378 8.72625 8.5489
75 1 1.63839 8.73584 10.9
76 1 2.39605 7.75422 11.4558
77 1 2.36185 6.3648 11.1126
89 1 1.68557 10.4378 0.778156
84 1 1.26087 10.293 2.26055
96 1 1.39937 10.5244 5.80047
21 1 1.92503 11.6793 5.0829
83 1 1.97272 9.86486 3.45811
109 1 0.460584 9.13924 7.92927
107 1 1.96788 9.23301 9.68906
80 1 0.964113 9.47731 11.8748
3 1 3.46182 1.23958 3.5408
16 1 4.12741 0.164967 5.50129
2 1 4.94593 1.47411 3.18049
9 1 5.79569 2.82726 7.153
24 1 5.70492 2.43076 8.65892
26 1 5.83625 0.933983 8.58776
10 1 5.33926 2.06308 6.16372
18 1 3.95423 1.52412 6.0336
25 1 3.47206 2.22466 9.36298
36 1 3.1563 1.05003 11.3995
48 1 4.33373 4.65548 0.709691
44 1 5.99016 5.22315 2.44868
46 1 4.83482 4.57961 2.03733
8 1 3.91788 4.06314 2.96916
58 1 5.89245 4.77236 5.62939
56 1 5.05263 5.94244 5.47293
51 1 3.61934 5.79543 5.77172
70 1 3.40603 5.25056 8.37877
57 1 3.29911 4.88631 6.83742
78 1 5.12797 4.29346 11.5245
68 1 4.40579 4.42649 9.42396
69 1 5.059 5.21573 10.3426
27 1 4.47806 3.0505 9.22505
47 1 5.19546 7.94796 2.43487
82 1 4.90455 8.78538 1.39948
92 1 5.0144 8.61295 3.70179
55 1 5.95341 7.18716 5.53858
73 1 4.19161 7.74413 8.55678
62 1 5.53684 7.49362 7.95057
65 1 3.19209 6.8109 8.4114
61 1 5.63671 8.06901 6.60218
72 1 5.55993 6.5066 10.3029
81 1 5.54413 7.76087 11.0694
88 1 3.49987 11.0428 2.1632
85 1 3.16455 10.4098 1.00517
91 1 5.91697 9.71594 1.04399
90 1 3.67653 9.11918 1.0001
94 1 5.51007 11.7138 5.47563
97 1 5.54044 10.2859 5.25334
87 1 3.11333 10.7168 3.43176
20 1 3.18504 11.8843 4.2963
95 1 5.89847 9.73487 4.04418
93 1 5.64775 9.60237 6.45837
100 1 5.39615 10.4731 7.59658
101 1 5.51693 9.71445 8.84227
106 1 4.93343 11.8978 7.96221
33 1 3.59975 11.9983 8.55921
98 1 3.50555 11.1841 9.68144
103 1 3.22428 11.7935 10.9441
99 1 3.27887 9.79207 9.59418
102 1 4.32834 9.07969 9.01661
114 1 8.60925 1.0636 0.341457
15 1 6.28686 1.03729 5.36838
19 1 6.14573 1.31933 3.9212
121 1 7.76238 0.614062 5.91285
128 1 8.88866 2.97665 3.70562
129 1 8.35478 0.18746 9.37563
130 1 8.26103 2.13424 11.4211
137 1 7.02759 0.504277 9.32774
134 1 6.96563 2.54662 10.8961
35 1 6.87822 2.8466 9.43909
147 1 8.12484 3.78741 2.81579
139 1 8.95702 4.71955 2.11283
141 1 6.86754 4.534 3.29409
150 1 8.14886 4.52859 5.47536
156 1 6.87198 4.6036 4.71775
151 1 8.27125 5.07366 6.80782
166 1 7.22697 4.60737 7.64401
23 1 6.11789 4.13615 6.99852
167 1 7.57641 4.01855 8.90824
165 1 8.33637 4.89564 9.7276
37 1 6.09022 3.28999 11.648
49 1 6.32647 6.66491 2.15676
140 1 7.99375 7.68454 0.383597
142 1 8.58072 7.38481 2.5869
145 1 6.96274 6.67636 0.681379
171 1 8.11027 8.45739 1.63405
144 1 7.31434 7.04926 3.2988
148 1 7.18411 7.1601 4.73754
154 1 8.35935 7.1502 5.53352
153 1 8.1698 6.55922 6.73473
162 1 8.58165 7.49694 7.74916
184 1 8.14193 8.93666 7.51019
188 1 7.99517 8.26872 11.0671
74 1 6.48352 6.90777 9.14608
160 1 7.81743 7.2395 9.89896
169 1 7.09657 9.53003 1.87342
174 1 7.97704 10.9841 3.56656
170 1 6.93637 10.1165 3.21665
177 1 8.34338 9.55504 6.12299
178 1 8.10362 11.1346 6.34415
180 1 7.89147 9.70405 8.60484
181 1 8.60636 10.9521 8.71045
185 1 8.91145 11.4014 7.40967
104 1 6.73251 9.58153 9.41521
110 1 6.49943 9.08283 10.8292
86 1 6.07477 10.1283 11.7812
115 1 10.3233 1.23323 2.44296
116 1 11.6482 0.993539 2.82226
112 1 9.70433 1.22206 1.2498
111 1 9.4857 1.66562 3.53701
126 1 10.9251 0.207048 4.75638
120 1 9.76984 1.11383 4.82804
123 1 9.07273 1.35593 5.95414
127 1 9.85358 0.871564 7.35898
189 1 11.3665 0.497339 7.24559
131 1 9.26943 1.27343 8.8753
135 1 9.92736 2.45712 9.72437
136 1 9.31994 2.91918 10.9834
105 1 11.8296 0.0101488 10.1355
119 1 10.0568 4.12402 1.1601
117 1 11.2913 4.10232 1.87838
157 1 11.3328 4.9189 4.17809
124 1 9.18021 3.70881 5.01453
146 1 11.3855 3.97031 3.30822
138 1 10.2186 5.74187 3.89366
161 1 10.2777 4.94223 8.31128
155 1 9.72347 4.77316 7.05922
133 1 11.4486 4.36918 8.8939
122 1 11.7791 3.7662 6.22739
125 1 10.4313 4.01175 6.05778
163 1 9.44619 5.61201 9.18789
113 1 9.86272 3.82653 11.855
132 1 11.2015 3.12199 9.46298
143 1 9.41135 6.11047 2.82495
168 1 11.139 7.60473 0.563201
149 1 9.69535 7.6531 5.41856
152 1 10.827 7.13612 6.19421
159 1 9.168 7.09184 8.9772
158 1 11.2905 7.02504 10.2119
164 1 10.4181 7.84684 9.49228
79 1 11.2299 6.74242 11.5198
172 1 10.0074 10.0659 4.56232
173 1 11.0291 10.7553 5.07982
175 1 9.42791 9.05859 5.30838
179 1 9.28849 10.6904 3.58403
182 1 11.2861 9.8532 8.11419
186 1 11.4828 11.032 7.29613
176 1 11.9937 10.5963 6.03074
187 1 10.2157 9.88624 10.5578
190 1 10.9942 11.1135 10.7664
183 1 10.5117 9.3033 9.2034
191 1 9.03 9.33326 11.045
ITEM: TIMESTEP
2000
ITEM: NUMBER OF ATOMS
191
ITEM: BOX BOUNDS pp pp pp
-1.1112735694143061e-01 1.2111127356941401e+01
-1.1112735694143061e-01 1.2111127356941401e+01
-1.1112735694143061e-01 1.2111127356941401e+01
ITEM: ATOMS id type x y z
4 1 1.75146 2.71465 1.47142
12 1 1.17245 0.722054 4.9197
118 1 0.0925994 0.557268 4.00563
31 1 2.54085 0.863672 8.78356
32 1 1.17849 0.758193 8.59041
11 1 0.61767 0.717339 7.32827
13 1 1.34648 1.3061 6.22683
17 1 2.50425 2.16471 6.29502
28 1 0.176306 0.877119 9.66684
29 1 0.218352 2.23153 10.2831
30 1 1.39917 2.4645 11.1107
38 1 2.60699 1.87097 10.8959
7 1 0.412754 4.88979 1.58307
6 1 1.05947 3.8778 0.762292
45 1 1.27596 5.76957 2.19021
14 1 2.201 3.56066 6.58832
22 1 0.851143 3.94512 6.96709
63 1 0.681203 4.71613 8.21399
34 1 1.43679 3.75731 11.6265
64 1 1.73918 4.83365 10.8139
66 1 1.73559 4.81008 9.32733
39 1 0.208988 8.56323 0.916212
43 1 2.54223 8.0717 0.668456
42 1 1.40471 8.15661 1.62144
54 1 2.45373 6.60932 5.43517
50 1 2.13949 8.87206 3.87376
52 1 0.922842 6.48172 5.65357
60 1 2.79696 7.91922 4.92447
40 1 1.10182 6.6894 3.28349
53 1 0.286806 6.24343 4.36898
41 1 1.64172 7.93678 3.00731
108 1 1.50958 8.46417 8.71956
67 1 1.71779 7.04402 8.39806
71 1 0.679223 6.19467 7.96357
59 1 0.190396 6.70626 6.80563
77 1 1.90072 6.13053 11.3992
76 1 2.07029 7.64166 11.7102
75 1 1.46894 8.76968 11.1156
89 1 1.05355 10.7446 0.768481
84 1 1.38388 10.7331 2.13635
80 1 0.691843 9.54783 -0.17072
96 1 1.20098 10.6125 5.36619
21 1 2.01782 11.8011 5.00278
176 1 -0.157446 10.6478 5.84115
83 1 2.20821 10.0857 3.09749
109 1 0.347873 9.17631 8.26539
107 1 1.98104 8.93951 9.83748
3 1 5.2782 1.19846 1.80514
1 1 3.96403 1.60257 1.83569
5 1 2.9341 2.51938 2.20528
16 1 4.18316 0.140801 5.32306
18 1 3.87106 1.37616 5.9616
26 1 5.61957 0.71771 8.96099
24 1 5.63262 2.14918 8.78206
10 1 4.99684 1.85978 6.49985
9 1 5.59914 2.72264 7.42086
25 1 3.22228 1.92044 9.55297
36 1 3.01234 0.670035 11.7124
27 1 4.3542 2.87029 9.36747
48 1 4.14032 5.0226 0.720213
44 1 5.62856 5.2621 2.66951
46 1 4.37266 4.78404 2.06744
8 1 3.37615 3.87959 2.72599
58 1 5.97917 4.55522 5.8051
56 1 5.17192 5.74537 5.70515
51 1 3.56704 5.76983 5.89083
70 1 3.17025 5.06684 8.41519
57 1 3.00251 4.71976 6.74052
78 1 4.97379 4.71471 11.6933
68 1 4.18165 4.35151 9.44757
69 1 4.73051 5.17019 10.356
37 1 5.89219 3.69273 11.7598
47 1 5.09859 7.73472 2.29849
82 1 4.80599 8.74417 1.2269
92 1 4.84214 8.39203 3.54481
55 1 5.85511 7.05539 5.54102
73 1 4.19639 7.66866 8.54839
62 1 5.51798 7.40203 8.01179
61 1 5.63925 8.04861 6.70473
102 1 4.28101 8.9193 9.16483
65 1 2.98669 6.58866 8.43905
72 1 5.31617 6.49722 10.1207
81 1 5.51627 7.68998 10.895
88 1 3.71908 11.1409 1.72377
90 1 3.5324 9.13454 0.768593
85 1 3.57205 10.5715 0.502503
91 1 5.79641 9.65473 0.938533
97 1 5.45284 10.3615 5.14787
94 1 5.51337 11.8508 5.34535
20 1 3.28215 11.7043 4.41056
87 1 3.27456 11.0422 3.12125
95 1 5.58628 9.59974 3.99008
93 1 5.33801 9.60297 6.48976
100 1 5.28328 10.5954 7.71156
101 1 5.4276 9.66908 8.84798
106 1 4.96315 11.857 8.28141
33 1 3.55632 11.9304 8.92527
98 1 3.35236 10.98 10.0343
103 1 3.36548 11.3766 11.5402
99 1 3.15502 9.6392 9.80667
86 1 6.12633 10.0377 11.8205
114 1 8.67589 2.00148 0.512653
2 1 6.4721 0.958889 2.27132
15 1 6.73847 0.0988864 4.95565
19 1 6.86916 0.66353 3.50115
123 1 9.05282 1.17904 5.42264
121 1 8.11629 0.100447 5.67738
129 1 8.09958 0.259966 9.56366
130 1 8.15936 2.60096 11.4566
137 1 6.68259 0.394498 9.98486
134 1 6.84043 2.83843 11.0161
147 1 7.8263 4.6496 2.4483
139 1 9.03788 5.46002 1.92797
141 1 6.61624 4.5994 3.25801
150 1 8.11054 3.78489 4.89116
156 1 6.77817 4.20139 4.62271
151 1 8.51385 5.31505 7.05179
166 1 7.42316 4.4813 7.77776
23 1 6.19738 3.99809 7.08867
165 1 8.54231 4.51409 9.94399
167 1 7.50363 4.06424 9.12341
35 1 6.62771 3.03556 9.58014
171 1 7.85828 8.51469 1.4833
140 1 7.68999 7.70811 0.329623
142 1 8.27464 7.72238 2.6105
145 1 6.93016 6.66179 0.76488
49 1 6.07199 6.75385 2.35144
144 1 7.14843 7.20609 3.31191
148 1 7.02888 6.86439 4.72227
154 1 8.2894 6.92969 5.39499
153 1 8.26295 6.62705 6.76913
162 1 8.49069 7.60388 7.7188
184 1 8.42995 9.04646 7.54134
188 1 7.84068 8.3987 11.0285
160 1 7.71901 7.29902 9.84764
74 1 6.3848 6.7182 9.09903
110 1 6.57912 8.95262 10.847
159 1 8.93687 7.05517 9.00671
169 1 6.88581 9.44701 1.86979
174 1 7.8822 10.6738 3.54414
170 1 6.71442 9.96101 3.12559
177 1 8.95509 9.76678 6.25434
178 1 8.76607 11.1817 6.3918
180 1 7.85804 9.82697 8.71931
181 1 8.30638 11.3231 8.70417
185 1 9.35127 11.5702 7.64671
104 1 6.73097 9.58676 9.49157
191 1 8.94409 9.37301 10.8303
115 1 10.8173 1.65979 2.18775
112 1 9.96045 1.68273 0.980084
116 1 12.0435 1.16607 2.69772
111 1 10.1514 2.12788 3.45918
120 1 10.1059 1.26364 4.58227
126 1 11.0242 0.187858 4.65264
127 1 10.1506 0.573319 7.9903
189 1 11.4036 0.154613 7.38544
135 1 10.0258 2.50897 9.76433
131 1 9.48299 1.34629 9.04155
132 1 11.4109 3.1194 9.60999
105 1 11.4264 0.0223722 10.3174
119 1 9.95719 4.74904 1.20436
117 1 11.3008 4.6975 1.8095
146 1 11.0593 4.54137 3.2784
124 1 9.62123 3.65887 5.07196
128 1 10.346 3.4778 3.82333
157 1 11.193 5.86294 3.92047
161 1 10.3146 5.02149 8.38963
155 1 9.86808 4.81348 7.08739
125 1 10.427 4.07142 6.13994
122 1 11.7911 3.79364 6.42152
133 1 11.4933 4.31554 8.8728
163 1 9.39672 5.63719 9.19294
136 1 9.17902 3.46527 10.7131
113 1 9.77322 4.31576 12.0582
143 1 9.24474 6.67334 2.70192
168 1 11.4593 7.67104 0.632105
149 1 9.5271 7.65968 4.87041
138 1 10.1097 6.80428 3.82892
152 1 11.3076 7.50869 6.71591
158 1 11.0704 7.3287 10.3907
164 1 10.4233 7.82194 9.13661
79 1 10.9908 7.13335 11.753
172 1 10.2684 10.1218 4.21157
173 1 11.1971 11.0285 4.8345
179 1 9.30049 10.6941 3.43789
175 1 9.57508 9.14292 5.11638
182 1 11.4369 9.9728 8.11036
186 1 11.5992 10.953 7.14597
183 1 10.5294 9.25037 8.96392
187 1 10.16 10.0174 10.2299
190 1 10.556 11.2435 10.4193
ITEM: TIMESTEP
3000
ITEM: NUMBER OF ATOMS
191
ITEM: BOX BOUNDS pp pp pp
-2.2174842740680561e-01 1.2221748427406771e+01
-2.2174842740680561e-01 1.2221748427406771e+01
-2.2174842740680561e-01 1.2221748427406771e+01
ITEM: ATOMS id type x y z
4 1 1.72194 2.87219 1.34156
12 1 0.783027 0.490284 5.05604
118 1 -0.108318 0.81983 4.00343
17 1 2.4259 2.08107 6.38271
32 1 1.26582 0.534099 8.60526
11 1 0.401073 0.435641 7.31132
13 1 1.07171 1.24265 6.28934
31 1 2.73074 0.583859 8.81798
28 1 0.299503 0.727613 9.81875
29 1 0.165268 2.23437 10.0791
30 1 1.28172 2.41831 10.9806
38 1 2.45315 1.60104 10.8059
36 1 2.50459 0.201189 11.5086
7 1 0.0431014 4.6068 1.392
6 1 0.94409 3.75654 0.536613
45 1 0.765838 5.65015 1.92689
14 1 2.00988 3.45084 6.64302
63 1 0.438615 5.15134 8.90821
22 1 0.47532 3.5951 6.4547
34 1 1.39493 3.71115 11.5954
64 1 1.81047 4.9029 10.9437
66 1 1.68891 4.85365 9.58298
39 1 0.344756 8.27897 0.607686
42 1 1.56194 8.03561 1.40601
41 1 1.53861 7.68539 2.82373
43 1 2.64144 8.17243 0.47585
54 1 2.26587 6.67066 5.44483
50 1 1.92921 8.69094 3.81159
52 1 0.787942 6.13458 5.45823
60 1 2.20332 7.97371 4.95796
40 1 1.04616 6.31794 3.09092
53 1 0.10958 6.32627 4.22392
108 1 1.46042 8.58757 8.78661
67 1 1.7531 7.23042 8.38621
71 1 0.684688 6.35848 7.97746
59 1 0.0634984 6.50662 6.73147
77 1 2.16097 6.37255 11.419
76 1 2.38879 7.71703 11.6601
75 1 1.45014 8.81116 11.0693
89 1 0.89659 10.5131 0.528718
84 1 1.16042 10.4267 1.92597
96 1 0.761334 10.4409 5.25231
21 1 1.45718 11.6853 5.02371
83 1 2.02166 10.0518 3.23058
109 1 0.415398 9.16196 8.18806
80 1 0.627092 9.3988 12.1435
107 1 2.12846 9.09249 9.82419
3 1 5.04344 0.965974 2.01558
1 1 3.8341 1.61282 2.22185
5 1 3.04018 2.73602 1.94579
16 1 3.90788 -0.00504856 5.45087
18 1 3.79613 1.32909 6.01478
2 1 6.01175 1.15333 2.89043
26 1 5.95706 0.707326 8.94912
24 1 5.63559 2.28182 8.78713
10 1 5.0185 1.94746 6.41889
9 1 5.73277 2.77626 7.31744
25 1 3.23623 1.72695 9.57759
27 1 4.28571 2.70063 9.41612
48 1 4.8674 4.85139 0.554913
44 1 5.62118 5.44785 2.78048
46 1 4.6064 4.8842 1.94144
8 1 3.59098 3.90015 2.43623
58 1 5.83355 4.83374 5.71682
70 1 3.13977 5.18219 8.6833
57 1 2.96091 4.66899 7.24922
51 1 3.33523 5.61029 6.0711
78 1 5.21782 4.29 11.7667
68 1 4.19002 4.20532 9.5423
69 1 5.05073 4.77246 10.4502
72 1 5.91323 5.98072 10.2223
37 1 5.90232 3.00196 11.7269
47 1 4.94397 8.12637 2.39978
82 1 4.83956 8.65653 1.01611
49 1 5.66843 6.87918 2.92255
55 1 5.83754 7.14997 5.84295
92 1 4.70862 9.05787 3.52214
56 1 4.92169 5.99706 5.80916
73 1 4.32892 7.66692 8.61293
62 1 5.68637 7.50474 8.06031
61 1 5.78435 8.07227 6.88754
65 1 3.21848 6.78999 8.62733
102 1 4.3839 9.02552 9.22525
81 1 5.76452 6.66028 11.3995
88 1 3.68333 11.2899 1.76615
85 1 3.66325 10.5697 0.413166
90 1 3.62992 9.15203 0.461479
91 1 5.95839 9.40923 0.64518
97 1 5.53897 10.4037 5.30923
94 1 5.30147 11.8882 5.48832
20 1 2.87872 11.8333 4.60168
95 1 5.53752 10.0444 3.93427
87 1 3.11943 11.0461 3.17649
93 1 5.64947 9.74587 6.57159
100 1 5.29139 10.5668 7.83037
106 1 5.00679 12.0198 8.41301
101 1 5.51913 9.80321 8.93579
33 1 3.60314 11.9259 8.99814
98 1 3.60634 11.0527 10.147
99 1 3.31991 9.79205 9.75482
103 1 3.41136 11.4149 11.6528
15 1 6.46455 0.156648 5.23974
19 1 6.39732 1.238 4.18094
123 1 8.73932 0.624709 4.95477
134 1 7.1053 2.74547 11.0506
137 1 7.13372 0.3908 9.65653
129 1 8.49121 0.199163 9.28864
147 1 7.87035 4.57905 2.27062
139 1 8.89031 5.32973 2.19718
156 1 6.73334 4.30283 4.6719
150 1 8.10418 3.88689 4.98657
141 1 6.74884 4.69658 3.19646
151 1 8.34973 5.44752 7.38154
166 1 7.22136 4.56644 7.92001
23 1 6.24157 4.07981 7.00612
165 1 8.5448 4.70023 9.98927
136 1 8.9561 4.17942 11.2847
35 1 6.96123 2.91142 9.64195
167 1 7.51226 4.16161 9.22329
130 1 8.45486 2.94046 11.6683
171 1 7.89897 8.32681 1.34096
140 1 7.92516 7.68971 0.0227313
145 1 6.93072 6.86519 -0.170511
142 1 8.00061 7.53857 2.75047
143 1 9.08956 6.58695 2.78239
144 1 6.83891 7.39043 3.54131
148 1 6.99684 7.18095 4.91082
154 1 8.25619 7.14942 5.57948
153 1 8.50502 6.82365 6.89304
162 1 8.88447 7.79651 7.78474
188 1 8.32806 8.60103 11.1792
160 1 7.85617 7.4972 9.80583
74 1 6.5408 6.91015 9.3083
169 1 6.88986 9.44123 1.66007
170 1 6.69506 10.1754 2.91457
174 1 7.60501 11.1385 3.18669
179 1 8.88947 10.8776 3.31507
121 1 7.71248 12.1464 5.51974
177 1 8.78836 9.69949 6.22097
178 1 8.50436 11.1161 6.263
180 1 8.10042 9.98318 8.5841
181 1 8.64516 11.3111 8.49502
184 1 8.57453 9.07635 7.54957
104 1 6.94689 9.8934 9.50123
110 1 7.20042 9.57747 10.8128
86 1 6.30121 9.9917 11.8544
115 1 10.799 1.82454 2.3759
112 1 10.1293 1.82734 1.06485
114 1 9.15732 2.23292 0.166464
111 1 10.0066 2.25252 3.54396
120 1 10.0024 1.11412 4.42905
126 1 11.0758 0.171986 4.24418
116 1 12.0815 1.83551 2.92995
127 1 10.3871 0.161111 7.77537
131 1 9.7152 0.942317 8.92825
189 1 11.6288 -0.244855 7.33001
135 1 10.2976 2.13129 9.16361
119 1 9.90922 5.06574 1.21491
117 1 11.099 4.67174 1.8856
113 1 9.50032 4.9187 -0.113854
146 1 10.9756 4.67733 3.35643
124 1 9.47328 3.97642 5.0886
128 1 10.1893 3.65242 3.96713
157 1 11.1959 5.9579 3.93163
161 1 10.2772 5.02025 8.50976
155 1 9.66656 4.69539 7.35103
125 1 10.2017 4.00772 6.30282
133 1 11.6083 4.57388 8.93498
122 1 11.572 3.57585 6.37313
163 1 9.45554 5.5575 9.49693
132 1 11.5113 3.04085 9.40441
168 1 11.6446 7.37424 0.3478
149 1 9.35542 7.80447 4.68301
138 1 9.99693 6.88253 3.74305
152 1 11.2882 7.05664 6.67325
158 1 11.2973 6.96839 10.33
164 1 10.5227 7.81915 9.43271
79 1 11.3114 6.66372 11.6823
159 1 9.14917 7.29253 9.23266
172 1 9.76709 10.1679 4.18178
173 1 10.8624 11.1727 4.611
175 1 9.30257 9.13333 4.99866
176 1 11.7393 10.5091 5.5772
182 1 11.593 9.73914 8.06294
186 1 11.5756 10.7452 7.02626
185 1 9.39269 11.7009 7.31456
187 1 10.4682 10.0195 10.2939
190 1 11.1282 11.2641 10.4797
191 1 9.60597 9.33921 11.2758
105 1 12.1023 12.1912 10.3972
183 1 10.8609 9.19566 9.16976
ITEM: TIMESTEP
4000
ITEM: NUMBER OF ATOMS
191
ITEM: BOX BOUNDS pp pp pp
-1.8133211335161373e-01 1.2181332113351582e+01
-1.8133211335161373e-01 1.2181332113351582e+01
-1.8133211335161373e-01 1.2181332113351582e+01
ITEM: ATOMS id type x y z
116 1 -0.19587 1.18437 2.34905
4 1 1.87258 2.71104 1.33248
12 1 1.1426 0.488314 4.81491
118 1 0.211581 0.553019 3.66839
31 1 2.62799 0.75146 8.82503
32 1 1.20959 0.751008 8.70093
11 1 0.565441 0.609103 7.39084
13 1 1.27963 1.13076 6.11992
17 1 2.46935 2.2168 6.2425
28 1 0.215496 0.870081 9.71117
29 1 0.0506829 2.18037 10.2939
30 1 1.22967 2.61799 11.0927
38 1 2.3889 1.79299 10.8692
36 1 2.81884 0.688403 11.6354
7 1 0.0820053 4.50282 1.5542
6 1 0.996871 3.67851 0.789489
45 1 0.753291 5.5489 2.24127
14 1 2.14553 3.57381 6.43934
63 1 0.55733 4.95952 8.55292
22 1 0.704759 3.84798 6.15962
34 1 1.16397 3.79747 11.8012
64 1 1.6105 4.92372 10.9993
66 1 1.68564 4.64325 9.49171
41 1 1.71449 7.61595 2.70763
42 1 1.56433 7.94343 1.34877
43 1 2.63778 8.17769 0.43579
39 1 0.346806 8.21861 0.762865
54 1 2.54375 6.74604 5.29681
50 1 2.33847 8.64604 3.51628
52 1 0.958988 6.41019 5.3638
60 1 2.83042 8.04591 4.67225
40 1 0.948954 6.57057 3.16316
53 1 0.170356 6.26658 4.29748
108 1 1.14418 8.33635 8.83372
67 1 1.74844 7.08921 8.38625
71 1 0.878312 6.15342 7.75081
59 1 0.419833 6.61806 6.58233
109 1 0.135965 8.65534 7.9234
152 1 0.0321611 8.03401 6.59523
75 1 1.29 8.69321 11.033
76 1 2.21074 7.56441 11.4921
77 1 2.24514 6.22901 11.2449
89 1 0.605962 10.5055 0.772067
84 1 1.16618 10.573 1.97619
96 1 1.16489 10.4734 5.6837
21 1 1.86831 11.5158 5.06658
83 1 2.18484 10.0545 2.97355
107 1 1.75349 9.14615 9.74587
80 1 0.511655 9.37179 12.1998
3 1 5.19626 1.44084 1.74412
1 1 4.11074 2.02198 1.22225
16 1 4.1231 0.206287 5.29048
9 1 5.5868 2.87757 7.46046
24 1 5.47933 2.3544 8.81544
26 1 5.91247 0.612608 9.01487
10 1 4.84287 2.1065 6.46823
18 1 3.78107 1.50289 5.79214
25 1 3.15344 1.99284 9.63842
27 1 4.13359 2.89817 9.23435
48 1 5.10909 5.35835 0.248288
44 1 5.42379 5.60458 2.70047
46 1 4.5795 5.28601 1.51816
8 1 3.69183 4.24215 1.71856
5 1 3.222 3.02313 1.44777
56 1 5.00664 5.83874 5.87827
58 1 5.91604 4.76945 5.87877
70 1 3.05894 5.06464 8.55079
57 1 2.99816 4.7832 6.967
51 1 3.52486 5.75549 5.87796
78 1 5.03858 4.24661 11.6541
68 1 4.06166 4.27581 9.41308
69 1 4.9976 4.82869 10.2336
37 1 5.80941 3.05342 11.9266
47 1 4.74689 8.22829 2.69585
82 1 4.75884 8.89048 1.40838
55 1 5.74715 7.08119 5.85451
49 1 5.63551 6.93101 3.04444
65 1 3.04622 6.56087 8.72406
62 1 5.57616 7.43148 8.2145
61 1 5.52009 8.11428 6.93328
73 1 4.23982 7.49529 8.79041
72 1 5.7545 6.0825 10.3596
102 1 4.21975 8.85928 9.43663
88 1 3.78197 11.4724 1.91024
85 1 3.33317 10.8124 0.467664
91 1 5.89655 9.56117 0.878723
90 1 3.5539 9.18544 0.71286
97 1 5.53441 10.5186 5.55592
94 1 5.41135 12.0039 5.53016
87 1 3.13344 11.0817 3.10552
95 1 5.94351 10.2083 4.12326
20 1 3.18237 11.5934 4.52697
92 1 4.86117 9.28952 3.70749
93 1 5.43482 9.68062 6.76828
100 1 5.19352 10.6237 7.99043
106 1 5.02065 11.9838 8.58627
101 1 5.36664 9.65414 9.06457
98 1 3.2426 11.0355 10.1508
103 1 3.2632 11.5948 11.5437
99 1 3.18186 9.66468 9.82107
33 1 3.46514 11.9954 9.05514
86 1 6.02292 9.9241 11.9568
2 1 5.99646 1.12476 2.64469
114 1 9.01957 1.99988 0.135271
15 1 6.59865 0.309844 5.16252
19 1 6.64915 0.969794 3.81537
134 1 6.89493 2.67024 11.1103
129 1 8.53416 0.147906 9.28512
137 1 7.19164 0.418943 9.7803
130 1 8.27844 2.77041 11.7098
147 1 7.76423 4.73423 2.67108
139 1 8.90173 5.4805 2.25198
156 1 6.54647 4.23602 4.63795
150 1 8.10317 3.6835 4.94615
141 1 6.46505 4.75526 3.26033
151 1 8.48284 5.28879 7.01898
166 1 7.47886 4.32257 7.66034
23 1 6.246 4.00599 7.00061
165 1 8.51345 4.53815 10.0462
136 1 8.76459 4.09633 11.3284
167 1 7.49923 3.97669 9.09682
35 1 6.74616 2.85035 9.62314
171 1 7.9055 8.46573 1.49875
140 1 7.92914 7.7887 0.16516
142 1 7.94874 7.57537 2.68407
145 1 7.25844 6.5634 -0.0542335
144 1 6.84858 7.32491 3.6674
148 1 6.88532 7.17598 5.0248
154 1 8.11286 6.89885 5.62306
143 1 9.08592 6.62609 2.93251
153 1 8.12901 6.66935 6.97948
162 1 8.48398 7.73946 7.85152
184 1 8.17723 9.11073 7.6963
188 1 8.03071 8.6202 11.1801
160 1 7.86382 7.54086 9.96325
74 1 6.39095 6.86748 9.38624
81 1 5.96045 6.32492 11.7854
159 1 9.11985 7.13627 9.14944
169 1 6.9686 9.59483 1.80684
170 1 6.84481 10.3977 2.98933
174 1 8.13476 10.9706 3.13995
121 1 7.96378 12.1446 5.48336
177 1 8.54827 9.5973 6.34369
178 1 8.58402 11.1295 6.28066
180 1 7.62243 10.0713 8.5849
181 1 8.42306 11.2666 8.55572
104 1 6.64005 9.86422 9.61446
110 1 6.87341 9.51902 10.9136
115 1 10.9213 1.72962 2.02944
112 1 10.1669 1.96464 0.808036
111 1 10.3508 1.93011 3.39957
120 1 10.2156 0.796402 4.10168
123 1 9.14569 0.559868 5.05934
127 1 10.1609 0.225228 7.68387
189 1 11.5342 -0.135994 7.39792
131 1 9.58137 1.02775 8.80973
135 1 10.1842 2.22041 9.24985
105 1 11.9408 -0.220325 10.4117
119 1 9.87617 4.99189 1.37595
117 1 11.1104 4.5304 1.9199
113 1 9.40519 4.71049 0.0986857
146 1 10.9761 4.46651 3.47933
124 1 9.53094 3.5291 5.07263
128 1 10.1987 3.26782 3.83802
157 1 11.0935 5.89417 4.2228
161 1 10.326 4.99756 8.50262
155 1 9.73697 4.68706 7.22699
125 1 10.2671 3.88698 6.27371
133 1 11.5577 4.43284 8.94767
122 1 11.7572 3.69364 6.24217
163 1 9.36854 5.67618 9.43556
132 1 11.3074 2.94768 9.6611
168 1 11.7157 7.30424 0.30211
149 1 9.30427 7.63916 5.08746
138 1 10.0151 6.79172 4.12682
175 1 9.40443 9.07507 5.16681
158 1 11.3587 7.19077 10.1177
164 1 10.315 7.95011 9.40176
79 1 11.1727 7.02217 11.4779
172 1 10.077 10.1356 4.5869
173 1 11.2491 10.8481 4.76862
179 1 9.39889 10.5657 3.30527
176 1 12.1519 10.4884 5.81097
126 1 11.3047 12.2653 4.12688
182 1 11.4976 9.65565 8.07604
186 1 11.6462 10.7212 7.11019
185 1 9.21246 11.5341 7.37029
183 1 10.6481 9.41987 9.1832
187 1 10.3431 10.1155 10.346
190 1 10.9936 11.3127 10.5952
191 1 9.26214 9.52418 11.0829
ITEM: TIMESTEP
5000
ITEM: NUMBER OF ATOMS
191
ITEM: BOX BOUNDS pp pp pp
-1.0781052792757718e-01 1.2107810527927576e+01
-1.0781052792757718e-01 1.2107810527927576e+01
-1.0781052792757718e-01 1.2107810527927576e+01
ITEM: ATOMS id type x y z
5 1 2.94136 2.86989 1.73074
12 1 1.10539 0.635192 4.93751
118 1 0.0911597 0.729085 3.92673
31 1 2.70635 0.884663 8.79464
32 1 1.21956 0.711521 8.68398
11 1 0.566957 0.747581 7.45138
17 1 2.54443 2.11557 6.21002
13 1 1.29522 1.21352 6.2567
28 1 0.40504 0.921688 9.82133
29 1 0.136397 2.18194 10.2412
30 1 1.3512 2.61119 10.922
38 1 2.57428 1.87884 10.7887
36 1 2.98369 0.764298 11.5936
7 1 0.184365 4.8304 1.33372
6 1 0.753678 3.8655 0.607396
45 1 1.0733 5.43508 2.18696
4 1 1.50287 3.03878 1.51395
14 1 2.24184 3.52643 6.28386
63 1 0.672637 4.72292 8.50696
22 1 0.812841 3.80316 5.99331
34 1 1.26417 3.86741 11.5735
64 1 1.81467 4.93884 10.7612
66 1 1.8795 4.59909 9.32204
39 1 0.355418 8.08045 0.917478
42 1 1.72132 7.8025 1.43025
43 1 2.73276 8.11672 0.436289
41 1 1.89112 7.43704 2.66934
54 1 2.56778 6.54302 5.49291
50 1 2.52795 8.50221 3.44002
52 1 1.12594 6.33748 5.5097
60 1 2.94669 7.73468 4.74583
40 1 1.31794 6.31812 3.11355
53 1 0.547829 6.24442 4.19108
108 1 1.18234 8.42145 8.65745
67 1 1.62297 6.95303 8.5014
109 1 0.0604662 8.67369 7.7317
59 1 0.439284 6.58903 6.6228
71 1 0.630744 6.0658 7.8966
75 1 1.14033 8.70536 11.0683
76 1 2.24603 7.54943 11.4189
77 1 2.12288 6.15846 11.1897
89 1 0.642791 10.3195 0.817381
84 1 1.0754 10.2611 2.05701
80 1 0.45874 9.07897 -0.0234285
96 1 1.12857 10.4906 5.47504
21 1 1.80772 11.5575 4.9656
83 1 2.15417 9.8894 3.00413
107 1 1.77916 9.13106 9.79485
99 1 3.03604 9.74774 9.67948
1 1 3.59905 1.65793 2.07644
3 1 4.83736 1.20551 2.4326
16 1 4.07035 0.0559962 5.31147
18 1 3.7155 1.54098 5.87017
26 1 5.83951 0.61158 8.98195
24 1 5.69473 2.24825 8.79677
10 1 5.01984 1.99883 6.35592
9 1 5.74843 2.67362 7.31973
25 1 3.17198 2.11541 9.42778
27 1 4.28664 2.8023 9.12619
37 1 5.83925 3.00311 11.6908
48 1 5.06709 5.05596 0.25219
44 1 5.64542 5.41598 2.64425
46 1 4.94254 4.82372 1.60621
8 1 3.79741 3.99326 2.03699
56 1 4.90222 5.68126 5.80182
58 1 5.84171 4.58812 5.76107
70 1 3.15625 4.98728 8.48323
57 1 2.98541 4.72736 7.02116
51 1 3.47198 5.70136 6.14241
78 1 4.94793 4.04989 11.4975
69 1 4.96972 4.79029 10.2008
68 1 4.15226 4.18711 9.1728
72 1 5.72231 6.02412 10.4758
47 1 4.8434 8.14466 2.52215
82 1 4.828 8.8002 1.19563
49 1 5.53467 6.95281 2.81823
55 1 5.65765 7.10853 5.69778
92 1 4.91238 9.02362 3.65537
65 1 3.07848 6.58411 8.66487
62 1 5.39968 7.5028 8.19615
61 1 5.6564 8.17684 6.85019
73 1 4.03833 7.69388 8.81194
102 1 4.15439 8.96492 9.42436
81 1 5.83567 6.04757 11.9394
88 1 3.42874 11.2889 1.77345
85 1 3.53688 10.7374 0.513757
91 1 5.8916 9.69549 0.993383
90 1 3.6748 9.2792 0.50577
97 1 5.63896 10.5504 5.44548
94 1 5.49135 11.9842 5.37975
95 1 5.8497 9.89274 4.21937
20 1 3.10293 11.5445 4.45799
87 1 3.16046 11.0164 3.10387
93 1 5.41541 9.85287 6.67213
100 1 5.21082 10.7043 7.86931
106 1 4.80208 11.9331 8.56907
33 1 3.53021 11.9947 9.08938
98 1 3.17273 11.1117 10.1487
103 1 3.27261 11.5112 11.5391
101 1 5.42148 9.68879 8.99274
114 1 8.7901 2.1883 0.434278
15 1 6.74363 0.426661 5.32479
19 1 6.56575 1.41522 4.32102
123 1 9.00167 1.07412 5.20565
121 1 8.05198 0.130241 5.68751
2 1 5.93496 1.38739 3.07345
134 1 6.93512 2.51689 11.09
129 1 8.37152 0.0587454 9.31165
137 1 7.12073 0.428434 9.6721
130 1 8.14101 2.84687 11.6061
147 1 7.80359 5.04526 2.5708
139 1 8.99052 5.73379 2.15375
156 1 6.86731 4.56794 4.70673
150 1 8.17468 4.03947 4.95344
141 1 6.6327 4.77477 3.38554
151 1 8.49699 5.11165 7.09267
166 1 7.41155 4.49375 7.69682
23 1 6.27493 3.9768 7.0728
165 1 8.44507 4.7298 9.96343
136 1 8.69246 4.12318 11.2232
35 1 6.80893 2.8993 9.62595
167 1 7.41651 4.1003 9.06546
171 1 7.83058 8.53777 1.50888
140 1 7.71107 7.82875 0.245239
142 1 8.02958 7.74127 2.65408
145 1 6.74694 6.82982 0.290147
144 1 6.84586 7.297 3.37137
148 1 6.81763 7.2846 4.79051
154 1 8.29276 7.1142 5.32288
153 1 8.35336 6.58843 6.76501
162 1 8.52186 7.61578 7.71368
184 1 8.22839 9.00578 7.46814
188 1 8.06924 8.69868 11.2744
160 1 7.84939 7.52456 9.90693
74 1 6.30362 6.88013 9.35052
159 1 9.09341 7.14373 9.01887
169 1 6.97702 9.52898 1.95779
170 1 6.89956 10.0312 3.27921
174 1 7.97179 11.0036 3.44053
177 1 8.67525 9.69038 6.2277
178 1 8.56258 11.1889 6.2009
180 1 7.76585 9.85136 8.45533
181 1 8.56798 11.1193 8.61827
104 1 6.70087 9.78839 9.45972
110 1 7.08233 9.77587 10.9089
86 1 6.24346 10.3917 11.9441
115 1 10.7047 1.59639 2.14862
112 1 9.95509 2.08453 1.03159
116 1 12.0799 1.16849 2.59557
111 1 10.2325 2.18666 3.40781
120 1 10.0763 1.22239 4.4217
126 1 11.0967 0.250229 4.46155
127 1 10.264 0.323209 7.72547
189 1 11.5749 -0.0734503 7.61273
131 1 9.52106 0.973476 8.8368
135 1 10.0079 2.24793 9.38675
132 1 11.279 2.80654 9.53679
119 1 9.93442 5.0864 1.29735
117 1 11.1328 4.67575 1.82496
113 1 9.55143 4.72613 -0.0274341
146 1 11.0765 4.53753 3.24025
124 1 9.47451 3.63629 4.96553
128 1 10.1354 3.52236 3.77542
122 1 11.7195 3.62202 5.90567
161 1 10.4214 4.94589 8.4674
155 1 9.86561 4.63287 7.23997
125 1 10.2752 3.81407 6.09483
133 1 11.5537 4.11462 8.92062
163 1 9.36901 5.63141 9.30666
168 1 11.6052 7.10412 0.528255
143 1 9.15183 6.94637 2.77432
149 1 9.43381 7.89177 4.85348
138 1 10.1065 7.03514 3.86082
157 1 11.3304 5.9785 4.01502
152 1 12.0434 7.77423 6.74952
158 1 11.2646 7.03544 10.3033
164 1 10.3103 7.72178 9.4033
79 1 11.0685 6.70728 11.6258
172 1 10.0212 10.3364 4.33649
173 1 11.1275 11.1408 4.89756
179 1 9.2864 10.9187 3.26711
175 1 9.42038 9.22041 5.11554
176 1 11.9919 10.6904 5.88912
182 1 11.3239 9.73705 8.00017
186 1 11.6877 10.8307 7.20726
185 1 9.33476 11.479 7.37989
187 1 10.2939 9.83935 10.3486
190 1 10.915 11.1318 10.6127
183 1 10.5594 9.13546 9.15821
105 1 11.7064 12.0541 10.283
191 1 9.44609 9.31344 11.3967
ITEM: TIMESTEP
6000
ITEM: NUMBER OF ATOMS
191
ITEM: BOX BOUNDS pp pp pp
-1.1997100579828773e-01 1.2119971005798307e+01
-1.1997100579828773e-01 1.2119971005798307e+01
-1.1997100579828773e-01 1.2119971005798307e+01
ITEM: ATOMS id type x y z
4 1 1.94901 2.89697 1.29051
116 1 -0.0381466 1.17365 2.2922
12 1 1.16458 0.551217 4.73372
118 1 0.241263 0.608585 3.628
13 1 1.23436 1.2851 6.01284
31 1 2.811 0.802116 8.79036
32 1 1.47138 0.819974 8.42695
11 1 0.612438 0.774405 7.22435
17 1 2.37091 2.25357 6.17367
28 1 0.558004 0.856056 9.5929
29 1 0.186626 2.13933 9.99449
30 1 1.21231 2.63515 10.781
38 1 2.44091 1.77162 10.8018
36 1 2.64271 0.614507 11.6028
7 1 0.143857 4.44186 1.41709
6 1 0.799772 3.51035 0.700328
45 1 0.894697 5.46116 1.94836