ITEM: TIMESTEP
1000
ITEM: NUMBER OF ATOMS
191
ITEM: BOX BOUNDS pp pp pp
0.0000000000000000e+00 1.2000000000000000e+01
0.0000000000000000e+00 1.2000000000000000e+01
0.0000000000000000e+00 1.2000000000000000e+01
ITEM: ATOMS id type x y z
12 1 1.20509 0.848646 4.8824
1 1 2.45416 2.21262 3.44646
118 1 0.0568909 0.931156 4.21542
31 1 2.7963 1.20012 8.59879
32 1 1.33362 1.11411 8.47168
11 1 0.524598 1.20419 7.34151
17 1 2.71238 2.40746 6.16634
13 1 1.38231 1.67759 6.10224
28 1 0.600435 1.06936 9.68613
29 1 0.380463 2.49177 10.0643
30 1 1.54051 2.88833 10.6729
38 1 2.76966 2.1392 10.5977
4 1 2.18611 3.42645 1.49308
6 1 1.37529 4.1638 0.681185
7 1 0.316389 4.7799 1.23673
5 1 2.72351 3.38718 2.80547
53 1 0.358511 5.83537 4.1516
14 1 2.48962 3.77126 6.47623
22 1 1.04066 4.12647 6.92577
63 1 0.861504 4.89394 8.19573
34 1 1.60511 4.1806 11.3394
64 1 1.84804 5.17285 10.4568
66 1 1.97643 4.87993 9.13738
39 1 0.181589 8.50532 0.712513
43 1 2.65505 8.15867 0.868042
42 1 1.41328 7.99508 1.5577
45 1 0.410238 6.0196 1.6437
40 1 0.607622 6.50916 2.98891
41 1 1.37971 7.70322 2.91852
54 1 2.3679 6.52629 5.21292
50 1 2.14686 8.46843 3.69532
52 1 1.04645 6.21113 5.25484
60 1 2.43505 7.90596 4.88676
59 1 0.319578 6.54721 6.41356
67 1 1.82448 7.31926 8.10585
71 1 0.824954 6.39916 7.65354
108 1 1.50378 8.72625 8.5489
75 1 1.63839 8.73584 10.9
76 1 2.39605 7.75422 11.4558
77 1 2.36185 6.3648 11.1126
89 1 1.68557 10.4378 0.778156
84 1 1.26087 10.293 2.26055
96 1 1.39937 10.5244 5.80047
21 1 1.92503 11.6793 5.0829
83 1 1.97272 9.86486 3.45811
109 1 0.460584 9.13924 7.92927
107 1 1.96788 9.23301 9.68906
80 1 0.964113 9.47731 11.8748
3 1 3.46182 1.23958 3.5408
16 1 4.12741 0.164967 5.50129
2 1 4.94593 1.47411 3.18049
9 1 5.79569 2.82726 7.153
24 1 5.70492 2.43076 8.65892
26 1 5.83625 0.933983 8.58776
10 1 5.33926 2.06308 6.16372
18 1 3.95423 1.52412 6.0336
25 1 3.47206 2.22466 9.36298
36 1 3.1563 1.05003 11.3995
48 1 4.33373 4.65548 0.709691
44 1 5.99016 5.22315 2.44868
46 1 4.83482 4.57961 2.03733
8 1 3.91788 4.06314 2.96916
58 1 5.89245 4.77236 5.62939
56 1 5.05263 5.94244 5.47293
51 1 3.61934 5.79543 5.77172
70 1 3.40603 5.25056 8.37877
57 1 3.29911 4.88631 6.83742
78 1 5.12797 4.29346 11.5245
68 1 4.40579 4.42649 9.42396
69 1 5.059 5.21573 10.3426
27 1 4.47806 3.0505 9.22505
47 1 5.19546 7.94796 2.43487
82 1 4.90455 8.78538 1.39948
92 1 5.0144 8.61295 3.70179
55 1 5.95341 7.18716 5.53858
73 1 4.19161 7.74413 8.55678
62 1 5.53684 7.49362 7.95057
65 1 3.19209 6.8109 8.4114
61 1 5.63671 8.06901 6.60218
72 1 5.55993 6.5066 10.3029
81 1 5.54413 7.76087 11.0694
88 1 3.49987 11.0428 2.1632
85 1 3.16455 10.4098 1.00517
91 1 5.91697 9.71594 1.04399
90 1 3.67653 9.11918 1.0001
94 1 5.51007 11.7138 5.47563
97 1 5.54044 10.2859 5.25334
87 1 3.11333 10.7168 3.43176
20 1 3.18504 11.8843 4.2963
95 1 5.89847 9.73487 4.04418
93 1 5.64775 9.60237 6.45837
100 1 5.39615 10.4731 7.59658
101 1 5.51693 9.71445 8.84227
106 1 4.93343 11.8978 7.96221
33 1 3.59975 11.9983 8.55921
98 1 3.50555 11.1841 9.68144
103 1 3.22428 11.7935 10.9441
99 1 3.27887 9.79207 9.59418
102 1 4.32834 9.07969 9.01661
114 1 8.60925 1.0636 0.341457
15 1 6.28686 1.03729 5.36838
19 1 6.14573 1.31933 3.9212
121 1 7.76238 0.614062 5.91285
128 1 8.88866 2.97665 3.70562
129 1 8.35478 0.18746 9.37563
130 1 8.26103 2.13424 11.4211
137 1 7.02759 0.504277 9.32774
134 1 6.96563 2.54662 10.8961
35 1 6.87822 2.8466 9.43909
147 1 8.12484 3.78741 2.81579
139 1 8.95702 4.71955 2.11283
141 1 6.86754 4.534 3.29409
150 1 8.14886 4.52859 5.47536
156 1 6.87198 4.6036 4.71775
151 1 8.27125 5.07366 6.80782
166 1 7.22697 4.60737 7.64401
23 1 6.11789 4.13615 6.99852
167 1 7.57641 4.01855 8.90824
165 1 8.33637 4.89564 9.7276
37 1 6.09022 3.28999 11.648
49 1 6.32647 6.66491 2.15676
140 1 7.99375 7.68454 0.383597
142 1 8.58072 7.38481 2.5869
145 1 6.96274 6.67636 0.681379
171 1 8.11027 8.45739 1.63405
144 1 7.31434 7.04926 3.2988
148 1 7.18411 7.1601 4.73754
154 1 8.35935 7.1502 5.53352
153 1 8.1698 6.55922 6.73473
162 1 8.58165 7.49694 7.74916
184 1 8.14193 8.93666 7.51019
188 1 7.99517 8.26872 11.0671
74 1 6.48352 6.90777 9.14608
160 1 7.81743 7.2395 9.89896
169 1 7.09657 9.53003 1.87342
174 1 7.97704 10.9841 3.56656
170 1 6.93637 10.1165 3.21665
177 1 8.34338 9.55504 6.12299
178 1 8.10362 11.1346 6.34415
180 1 7.89147 9.70405 8.60484
181 1 8.60636 10.9521 8.71045
185 1 8.91145 11.4014 7.40967
104 1 6.73251 9.58153 9.41521
110 1 6.49943 9.08283 10.8292
86 1 6.07477 10.1283 11.7812
115 1 10.3233 1.23323 2.44296
116 1 11.6482 0.993539 2.82226
112 1 9.70433 1.22206 1.2498
111 1 9.4857 1.66562 3.53701
126 1 10.9251 0.207048 4.75638
120 1 9.76984 1.11383 4.82804
123 1 9.07273 1.35593 5.95414
127 1 9.85358 0.871564 7.35898
189 1 11.3665 0.497339 7.24559
131 1 9.26943 1.27343 8.8753
135 1 9.92736 2.45712 9.72437
136 1 9.31994 2.91918 10.9834
105 1 11.8296 0.0101488 10.1355
119 1 10.0568 4.12402 1.1601
117 1 11.2913 4.10232 1.87838
157 1 11.3328 4.9189 4.17809
124 1 9.18021 3.70881 5.01453
146 1 11.3855 3.97031 3.30822
138 1 10.2186 5.74187 3.89366
161 1 10.2777 4.94223 8.31128
155 1 9.72347 4.77316 7.05922
133 1 11.4486 4.36918 8.8939
122 1 11.7791 3.7662 6.22739
125 1 10.4313 4.01175 6.05778
163 1 9.44619 5.61201 9.18789
113 1 9.86272 3.82653 11.855
132 1 11.2015 3.12199 9.46298
143 1 9.41135 6.11047 2.82495
168 1 11.139 7.60473 0.563201
149 1 9.69535 7.6531 5.41856
152 1 10.827 7.13612 6.19421
159 1 9.168 7.09184 8.9772
158 1 11.2905 7.02504 10.2119
164 1 10.4181 7.84684 9.49228
79 1 11.2299 6.74242 11.5198
172 1 10.0074 10.0659 4.56232
173 1 11.0291 10.7553 5.07982
175 1 9.42791 9.05859 5.30838
179 1 9.28849 10.6904 3.58403
182 1 11.2861 9.8532 8.11419
186 1 11.4828 11.032 7.29613
176 1 11.9937 10.5963 6.03074
187 1 10.2157 9.88624 10.5578
190 1 10.9942 11.1135 10.7664
183 1 10.5117 9.3033 9.2034
191 1 9.03 9.33326 11.045
ITEM: TIMESTEP
2000
ITEM: NUMBER OF ATOMS
191
ITEM: BOX BOUNDS pp pp pp
-1.1167659602101883e-01 1.2111676596021043e+01
-1.1167659602101883e-01 1.2111676596021043e+01
-1.1167659602101883e-01 1.2111676596021043e+01
ITEM: ATOMS id type x y z
4 1 1.57364 2.71808 1.47142
5 1 2.91563 2.68682 2.27666
12 1 1.20248 0.666155 4.85697
118 1 0.175526 0.392109 3.99265
13 1 1.3337 1.45152 6.10226
31 1 2.73765 0.898966 8.77566
32 1 1.31302 0.683403 8.53098
11 1 0.606357 0.852658 7.32126
17 1 2.60646 2.11508 6.12143
28 1 0.318803 0.885063 9.69885
29 1 0.30177 2.30931 10.2456
30 1 1.43183 2.63404 10.9677
38 1 2.66089 1.96433 10.786
7 1 0.490007 4.79249 1.5507
6 1 0.968622 3.75172 0.780115
45 1 1.13612 5.84035 2.16133
14 1 2.25669 3.48152 6.66844
22 1 0.920592 3.94021 7.05307
63 1 0.728735 4.66978 8.31788
34 1 1.34205 3.93869 11.6266
64 1 1.76688 5.03468 10.6811
66 1 1.86955 4.6241 9.2867
39 1 0.109894 8.70695 1.00895
43 1 2.23806 8.10527 0.763036
42 1 1.18091 8.07381 1.712
54 1 2.39457 6.5911 5.61696
50 1 2.24958 8.80387 3.86703
52 1 0.995568 6.37523 5.63866
40 1 1.10165 6.49716 3.28477
60 1 2.66132 7.94502 5.0017
53 1 0.348769 6.2307 4.46799
41 1 1.52333 7.83539 3.05698
108 1 1.44567 8.56123 8.6476
67 1 1.83574 7.06456 8.43281
71 1 0.739523 6.15922 8.04522
59 1 0.201744 6.61173 6.81432
77 1 2.04525 6.37024 11.3166
76 1 1.84241 7.67467 11.7394
75 1 1.22235 8.8895 11.0472
89 1 1.52708 10.6441 0.675231
84 1 1.41352 10.4904 2.19007
80 1 0.52579 9.68011 -0.0919724
83 1 2.31605 9.99821 3.23618
21 1 1.94116 11.6834 5.1144
96 1 1.19388 10.5156 5.45248
176 1 -0.256181 10.615 5.80202
109 1 0.292184 9.08629 8.11923
107 1 1.79678 9.152 9.84267
3 1 5.18198 1.27932 1.9919
1 1 3.92893 1.7956 1.95297
16 1 4.19773 0.0999564 5.3869
18 1 3.93871 1.51455 5.73751
10 1 5.05925 2.03053 6.32508
24 1 5.56354 2.295 8.64418
9 1 5.75768 2.83729 7.26286
26 1 5.82854 0.809464 8.79913
25 1 3.2268 2.13107 9.53674
36 1 3.03024 0.877728 11.6032
48 1 4.19259 4.88018 0.639576
44 1 5.4835 5.14337 2.68614
46 1 4.40211 4.73296 2.00604
8 1 3.46073 3.90617 2.67453
56 1 4.95573 5.72224 5.63129
51 1 3.55147 5.69301 5.98487
70 1 3.1529 5.20513 8.54146
57 1 3.1744 4.66828 6.92979
78 1 4.91614 4.61634 11.6806
68 1 4.21559 4.41048 9.34555
69 1 4.77757 5.25368 10.3345
37 1 5.74034 3.52183 11.654
27 1 4.27739 3.06529 9.19018
47 1 4.96294 7.76009 2.22361
82 1 4.62403 8.71589 1.23337
90 1 3.32507 9.02157 0.824173
92 1 4.9532 8.37128 3.64513
55 1 5.76896 7.09885 5.5081
73 1 4.10339 7.70211 8.67846
62 1 5.4925 7.45882 8.11209
61 1 5.72187 8.08429 6.62494
65 1 3.16025 6.67759 8.46414
102 1 4.29829 8.96696 9.27541
72 1 5.39756 6.45947 10.0619
81 1 5.42197 7.57566 10.9152
88 1 3.51467 11.3948 2.04948
85 1 2.97208 10.707 0.433082
91 1 5.74991 9.5455 0.973407
94 1 5.57772 11.7627 5.30445
20 1 3.22378 11.5695 4.60055
97 1 5.57371 10.311 5.17282
87 1 3.26646 11.001 3.33078
95 1 5.73082 9.49079 4.00787
93 1 5.36123 9.6536 6.47244
100 1 5.19876 10.5974 7.75776
101 1 5.47285 9.70481 8.84179
33 1 3.50608 12.0027 8.9714
106 1 4.91191 12.0983 8.2391
98 1 3.42825 11.0248 10.1105
99 1 3.18938 9.61739 9.90242
103 1 3.27754 11.6956 11.5107
86 1 5.95873 9.99926 11.9078
114 1 8.86811 1.86123 0.386241
2 1 6.31411 1.38173 2.68696
15 1 6.8738 0.155386 4.90368
19 1 6.92986 0.768265 3.68266
121 1 8.07852 -0.0179258 5.61237
129 1 8.23347 0.389657 9.44717
130 1 8.19691 2.4956 11.4942
137 1 6.83728 0.47345 9.8496
134 1 6.81073 2.79788 11.0682
147 1 7.83864 4.52914 2.35916
139 1 8.99834 5.33022 1.93393
141 1 6.69255 4.55152 3.26004
150 1 8.14045 3.73863 4.92651
156 1 6.8281 4.39909 4.68998
58 1 5.83051 4.58397 5.73234
151 1 8.48596 5.29645 6.9823
166 1 7.53584 4.48012 7.60502
23 1 6.21976 4.14184 7.09324
167 1 7.60259 3.87568 8.92961
165 1 8.64404 4.37399 9.75621
35 1 6.70795 2.89893 9.53307
171 1 7.94373 8.47755 1.45834
140 1 7.61212 7.62508 0.240203
142 1 8.27531 7.66575 2.67519
145 1 6.60991 6.53767 0.787678
49 1 5.96065 6.56942 2.20598
144 1 7.00413 7.08711 3.31875
148 1 6.99374 7.04174 4.77452
154 1 8.23446 7.00011 5.42146
153 1 8.39914 6.62885 6.66749
162 1 8.59177 7.59635 7.65207
188 1 7.78759 8.21471 11.1001
160 1 7.65916 7.18403 9.8172
74 1 6.34683 6.77064 9.13432
110 1 6.38993 8.96323 10.906
169 1 7.02539 9.47098 1.77053
170 1 6.82921 9.9778 3.16017
174 1 7.97357 10.771 3.45635
177 1 8.90236 9.73202 6.26042
178 1 8.79499 11.1363 6.3219
180 1 7.86691 9.88232 8.71391
181 1 8.47945 11.1909 8.73005
184 1 8.4473 9.00176 7.58368
104 1 6.68303 9.58478 9.50509
191 1 8.92193 9.46529 10.9007
115 1 10.7786 1.38545 2.17233
112 1 9.81694 1.28084 1.11069
116 1 12.0808 0.952445 2.69512
111 1 10.2056 2.10242 3.33504
120 1 10.1292 1.14716 4.49615
126 1 11.1547 0.0694147 4.62552
123 1 9.03444 1.05651 5.43522
127 1 10.1672 0.553756 7.87354
189 1 11.5152 0.251622 7.41284
131 1 9.42855 1.35559 9.10074
135 1 10.1262 2.47266 9.81558
105 1 11.6501 -0.0591428 10.2172
119 1 10.0053 4.76248 1.13378
117 1 11.2321 4.70555 1.81103
157 1 11.1741 5.76817 3.91607
124 1 9.67023 3.66973 5.00545
128 1 10.4983 3.33474 3.87595
146 1 11.0594 4.51267 3.30365
161 1 10.4151 5.05822 8.44572
155 1 9.86671 4.87143 7.12789
125 1 10.6138 4.07874 6.09252
122 1 11.9219 3.9104 6.33523
133 1 11.5903 4.41462 8.91477
163 1 9.38098 5.56259 9.2385
136 1 9.2558 3.29487 10.7291
113 1 9.73135 4.31247 12.031
132 1 11.4179 2.98714 9.63016
143 1 9.28753 6.57227 2.77976
168 1 11.1526 7.97 0.697469
149 1 9.4511 7.64568 4.82174
138 1 10.1059 6.72162 3.88928
152 1 11.3645 7.60187 6.65329
159 1 8.88846 7.01891 9.04714
158 1 11.2201 7.46201 10.3977
164 1 10.5047 7.90249 9.26508
79 1 10.7948 7.47543 11.6568
172 1 10.1455 10.1343 4.23779
173 1 11.1475 10.9399 4.82736
179 1 9.29624 10.6942 3.36224
175 1 9.52774 9.10374 5.09602
182 1 11.4643 9.95354 8.09233
186 1 11.6203 11.0655 7.20499
185 1 9.33271 11.5614 7.62194
183 1 10.4823 9.37687 9.05969
187 1 10.0856 9.92225 10.2602
190 1 10.7654 11.1291 10.5096
ITEM: TIMESTEP
3000
ITEM: NUMBER OF ATOMS
191
ITEM: BOX BOUNDS pp pp pp
-2.1794103057518133e-01 1.2217941030575192e+01
-2.1794103057518133e-01 1.2217941030575192e+01
-2.1794103057518133e-01 1.2217941030575192e+01
ITEM: ATOMS id type x y z
4 1 1.6968 2.63495 1.51133
116 1 0.0328516 1.24267 2.77781
12 1 1.09413 0.425453 5.34044
118 1 0.240825 0.561016 4.16652
17 1 2.37747 2.07087 6.59705
32 1 1.42106 0.680786 8.70842
11 1 0.509544 0.524168 7.57103
13 1 1.18828 1.04559 6.48109
31 1 2.91171 0.704541 8.95137
28 1 0.319163 0.869718 9.73332
29 1 0.283161 2.08429 10.4055
30 1 1.38357 2.4978 11.1108
38 1 2.61535 1.75894 11.0399
7 1 0.246353 4.66499 1.3615
6 1 1.03249 3.71362 0.771839
45 1 0.912833 5.42323 2.35224
14 1 2.18496 3.51379 6.85647
22 1 0.749439 3.62988 7.23832
63 1 0.486366 4.80721 8.46015
70 1 3.16217 5.20954 8.66081
34 1 1.46263 3.77208 11.7668
64 1 1.74199 5.0124 10.9046
66 1 1.63807 4.89142 9.53759
39 1 -0.0272602 8.23713 0.861706
43 1 2.47264 7.9413 0.950231
42 1 1.20523 7.93185 1.59974
54 1 2.33183 6.70843 5.48401
50 1 1.98121 8.67461 3.63256
52 1 0.675983 6.47991 5.5361
40 1 0.912747 6.33361 3.34205
60 1 2.4831 8.1595 4.90755
53 1 -0.0334892 6.22868 4.37832
41 1 1.33892 7.61352 2.93767
108 1 1.4014 8.58704 9.00091
67 1 1.67671 7.21224 8.6273
71 1 0.620796 6.43945 8.01021
59 1 -0.0305671 6.75371 6.80545
77 1 2.01776 6.11403 11.7783
76 1 2.18243 7.54411 12.0107
75 1 1.33348 8.68074 11.4631
89 1 0.540514 10.4176 0.869421
84 1 0.938555 10.4631 2.12313
80 1 0.351053 9.3375 -0.0838305
83 1 1.9339 9.98059 3.1342
21 1 1.88052 11.503 5.28593
96 1 1.10639 10.5111 5.82925
109 1 0.447992 9.24568 8.30123
107 1 1.86589 9.12849 10.2923
3 1 5.06598 1.36157 1.18569
1 1 3.69008 1.41473 0.905695
5 1 3.048 2.25653 1.77324
2 1 5.75564 1.13989 2.29367
16 1 4.06172 0.0202301 5.34264
24 1 5.50966 3.00922 8.51924
26 1 6.03621 0.365042 8.58228
10 1 4.73583 2.3527 6.36945
18 1 3.65527 1.32964 6.21218
25 1 3.35747 1.9639 9.72135
36 1 2.98069 0.779516 11.9879
48 1 4.77052 4.43399 0.422831
8 1 3.71045 3.46483 2.40445
46 1 4.67687 4.49046 1.89313
44 1 5.53467 5.39535 2.51827
56 1 4.99391 5.95595 5.47633
51 1 3.39432 5.69394 5.92836
9 1 5.44607 3.22344 7.1569
57 1 3.11378 4.78455 7.04309
78 1 5.10398 3.93964 11.6269
68 1 3.97781 4.36365 9.58995
69 1 4.83354 4.98451 10.4184
72 1 5.88702 5.90051 10.2591
27 1 4.21173 2.9852 9.24252
47 1 4.82733 7.99673 2.47293
82 1 4.6739 8.85484 1.14263
49 1 5.52568 6.82084 2.57412
55 1 5.79307 7.1274 5.77553
92 1 4.66659 8.99487 3.63613
73 1 4.03275 7.66741 8.85717
62 1 5.35251 7.40412 8.31415
61 1 5.5941 8.05697 6.93544
65 1 2.97776 6.94966 8.59944
102 1 4.24428 9.01859 9.55509
88 1 3.1394 11.4393 1.94704
85 1 3.15799 10.8195 0.633881
91 1 5.73035 9.6396 0.785772
90 1 3.33948 9.14002 0.873434
94 1 5.54337 11.9579 5.34972
97 1 5.68179 10.4877 5.33062
20 1 3.18189 11.5813 4.50451
87 1 2.91067 11.0189 3.20557
95 1 5.80387 9.90999 3.93152
93 1 5.39356 9.62812 6.57104
100 1 5.16276 10.5064 7.8819
106 1 4.81069 11.749 8.432
101 1 5.37223 9.66004 9.11329
98 1 3.44776 11.105 10.4909
103 1 3.27326 11.668 11.854
99 1 3.25864 9.66982 10.2437
33 1 3.70029 12.0376 9.26905
15 1 6.65941 -0.0025717 4.62307
19 1 6.17978 0.90725 3.55089
121 1 8.02309 -0.278376 5.20249
123 1 8.89399 0.64773 4.70556
35 1 6.78047 2.67135 9.1205
137 1 7.03546 1.2352 9.11138
129 1 8.33025 0.48814 9.29264
130 1 8.76187 1.98153 11.8502
134 1 7.20565 1.68957 11.7108
37 1 6.09232 2.78845 11.5012
147 1 7.82548 4.427 2.2965
139 1 8.89265 5.19743 1.80977
156 1 6.94179 4.62332 4.59024
150 1 8.22057 4.24015 4.97331
141 1 6.7011 4.79454 3.0178
58 1 5.89689 4.8056 5.48823
151 1 8.5216 5.51462 7.14451
166 1 7.2629 4.78203 7.66341
23 1 6.08317 4.43838 6.82616
167 1 7.45204 4.03088 9.05173
165 1 8.14431 4.91887 10.0493
81 1 7.16809 5.44289 10.9513
163 1 9.28308 5.71698 9.39447
171 1 7.64349 8.25184 1.16067
143 1 8.93772 6.44015 2.57424
142 1 7.87357 7.34638 2.23527
144 1 6.75238 7.17957 3.25435
148 1 6.83641 7.26053 4.76864
154 1 8.13001 7.28584 5.32127
153 1 8.45071 6.8233 6.55971
162 1 8.46548 7.77971 7.61599
159 1 8.92013 7.52115 8.93458
188 1 8.04902 8.87522 11.1118
160 1 7.71034 7.86962 9.78499
74 1 6.36992 7.10751 9.39681
145 1 7.53923 6.43872 11.8903
140 1 7.7578 7.74757 12.1825
169 1 6.86208 9.40523 1.59201
174 1 8.20976 10.7762 3.11326
170 1 6.82493 10.0955 2.82753
177 1 8.8203 9.74934 6.08874
178 1 8.65563 11.2313 6.10531
180 1 7.80306 10.3044 8.50783
181 1 8.42073 11.6928 8.59401
184 1 8.39719 9.24914 7.42772
104 1 6.70358 10.0102 9.48313
110 1 6.91717 9.79563 10.9409
86 1 6.04457 10.2555 11.9381
115 1 11.2076 1.72696 2.33429
112 1 10.5852 1.4982 1.09685
114 1 9.551 1.4543 0.404525
111 1 10.4375 2.18079 3.45128
120 1 10.2245 0.945527 4.40099
126 1 11.3018 0.0585938 4.46709
127 1 10.3482 0.463071 7.89362
189 1 11.6676 -0.00336714 7.65368
131 1 9.79011 1.25339 8.9204
135 1 10.2092 2.35191 9.848
105 1 11.9331 -0.0783379 10.2095
119 1 10.1034 4.62483 0.888335
117 1 11.289 4.5278 1.6286
146 1 11.0792 4.70505 3.08299
124 1 9.66691 4.03643 5.05864
128 1 10.3719 3.56313 3.7723
161 1 10.4428 4.96027 8.68933
155 1 9.93861 4.92939 7.37739
125 1 10.5982 4.22424 6.30588
122 1 11.9029 3.5743 6.32363
113 1 9.73522 4.10639 12.0196
133 1 11.5449 4.28113 9.10953
132 1 11.5706 2.97094 9.81239
136 1 9.45035 2.98508 11.107
168 1 11.5237 7.31949 0.335065
149 1 9.24678 7.78782 4.67363
138 1 9.88824 6.80721 3.58149
157 1 11.0893 6.04639 3.63728
152 1 11.0879 7.1966 6.80411
158 1 11.0569 7.4419 10.1043
79 1 11.1421 7.10223 11.3502
164 1 10.2097 8.26425 9.31164
172 1 10.324 10.2441 4.36961
173 1 11.2191 11.2061 4.90764
175 1 9.65838 9.17225 5.10554
179 1 9.51519 10.6967 3.18709
182 1 11.6044 10.0429 8.34265
186 1 11.5112 11.0478 7.2793
185 1 9.22922 11.8914 7.34985
176 1 11.9504 10.7091 5.98084
187 1 10.2256 10.3816 10.3819
190 1 11.0636 11.4144 10.5786
191 1 9.20935 9.68117 11.1537
183 1 10.634 9.55191 9.26466
ITEM: TIMESTEP
4000
ITEM: NUMBER OF ATOMS
191
ITEM: BOX BOUNDS pp pp pp
-1.4912306506959924e-01 1.2149123065069626e+01
-1.4912306506959924e-01 1.2149123065069626e+01
-1.4912306506959924e-01 1.2149123065069626e+01
ITEM: ATOMS id type x y z
4 1 1.64737 2.63944 1.40996
116 1 0.00979477 1.07821 2.748
12 1 1.14284 0.40685 4.87077
118 1 0.0503081 0.598251 4.08281
17 1 2.36407 2.13262 6.01728
13 1 1.36608 1.14737 6.02908
32 1 1.54171 0.788491 8.58416
11 1 0.736128 0.612385 7.30256
31 1 2.94225 0.85044 8.97675
28 1 0.546229 0.982604 9.6509
29 1 0.338413 2.27285 10.0982
38 1 2.6052 1.84941 11.1244
30 1 1.42166 2.62423 11.05
7 1 0.277375 4.59341 1.48759
6 1 1.0572 3.68336 0.844898
45 1 1.16164 5.41593 2.15852
14 1 2.21621 3.64582 6.11737
63 1 0.50174 5.20104 8.79341
22 1 0.746624 3.94354 6.12645
34 1 1.33235 3.89428 11.6854
64 1 1.52876 5.09412 11.1133
66 1 1.55252 4.92214 9.7675
42 1 1.19708 8.10081 1.29059
43 1 2.36006 8.25691 0.459683
41 1 1.46778 7.75459 2.61825
54 1 2.52169 7.03375 5.04017
50 1 2.00478 8.74074 3.54761
52 1 1.11988 6.60712 5.47614
53 1 0.301684 6.33205 4.13017
40 1 1.12453 6.52426 2.98984
108 1 1.5087 8.45747 8.80376
67 1 1.83272 7.14013 8.39472
71 1 0.853812 6.3116 7.8764
59 1 0.291533 6.4723 6.5345
109 1 0.488585 9.08194 8.03825
77 1 1.65876 6.34958 11.5054
76 1 1.74639 7.80514 11.531
75 1 1.02198 9.01949 11.0167
89 1 0.382728 10.6627 0.749938
84 1 1.05986 10.4411 2.02339
80 1 0.169841 9.61884 -0.106467
96 1 0.977771 10.3694 5.64185
21 1 1.81788 11.3958 4.86036
83 1 2.00023 10.0968 3.05706
107 1 1.91522 9.25013 9.81411
3 1 5.00456 1.10512 1.57621
1 1 3.74436 1.56643 1.01629
2 1 5.89379 0.93089 2.62402
5 1 3.06454 2.54404 1.82613
16 1 4.09818 -0.00253099 5.16831
18 1 3.70072 1.4042 5.69026
10 1 4.66173 2.41564 6.03211
26 1 6.03031 0.233291 8.67952
25 1 3.31797 1.91965 9.78762
36 1 3.06376 0.884691 12.1119
48 1 4.51231 4.87826 0.565852
8 1 3.91209 3.63661 2.42911
46 1 4.55732 4.76198 2.00036
44 1 5.68208 5.3158 2.60974
51 1 3.73757 5.94182 5.35247
57 1 3.13474 4.62351 5.75185
9 1 5.19224 3.23716 7.01638
24 1 5.18858 2.92991 8.49918
78 1 5.21531 4.39092 11.7883
68 1 4.03122 4.57468 9.65749
69 1 5.07329 5.03472 10.509
27 1 3.98483 3.16598 9.31687
70 1 2.89165 5.38605 9.35924
47 1 4.79468 7.97826 2.6565
82 1 4.50282 8.66578 1.47745
49 1 5.71859 6.82243 2.67946
55 1 5.97348 7.33384 5.83266
92 1 4.51317 8.5707 3.94735
60 1 3.01405 8.19517 4.39619
56 1 5.0577 6.20471 5.65813
61 1 5.64098 7.95236 6.9769
62 1 5.60543 7.40442 8.36235
65 1 3.14139 6.77784 8.82285
73 1 4.23023 7.65564 9.01512
102 1 4.24715 8.98258 9.68814
88 1 3.57355 11.3845 1.79238
85 1 3.27738 10.6249 0.581004
91 1 5.5862 9.50132 1.09644
90 1 3.33193 9.13675 0.823576
94 1 5.38404 11.6146 5.24455
97 1 5.37853 10.2329 5.51411
95 1 5.51342 9.5974 4.22861
20 1 3.21904 11.4579 4.45938
87 1 3.23135 10.8945 3.10678
93 1 5.54511 9.45034 6.80037
100 1 5.13 10.3555 7.88833
106 1 4.90273 11.751 8.29886
98 1 3.38058 11.1782 10.2726
103 1 3.37982 11.6269 11.6401
99 1 3.1473 9.82685 10.1015
33 1 3.70548 12.008 9.13381
101 1 5.42632 9.69127 9.23015
123 1 8.76165 1.04533 5.09083
19 1 6.63753 0.565072 3.70438
15 1 6.68254 -0.126355 4.88263
121 1 7.95658 0.00397008 5.63713
137 1 6.8653 1.33489 8.93714
35 1 6.56885 2.71669 8.84699
129 1 8.25373 0.676453 9.09682
130 1 8.5717 1.98132 11.9351
134 1 7.04855 2.25981 11.8869
147 1 7.97256 4.44057 2.24878
139 1 8.95025 5.39373 1.87139
156 1 7.02193 4.68669 4.49742
150 1 8.16475 3.97998 4.82763
141 1 6.8409 4.71089 3.10368
58 1 6.08629 5.09672 5.50994
151 1 8.45908 5.35714 7.13294
166 1 7.3265 4.58898 7.52563
23 1 6.18988 4.25116 6.74148
167 1 7.46313 3.96902 8.86143
165 1 8.12313 4.74934 9.87521
81 1 7.2817 5.39451 10.9159
72 1 6.05667 5.9151 10.3062
37 1 6.26505 3.22855 11.7383
171 1 7.74848 8.19994 1.52254
140 1 7.90466 7.7741 0.213656
142 1 8.12204 7.42891 2.68001
145 1 7.7004 6.31839 -0.20544
144 1 6.93986 7.11764 3.49
148 1 6.95397 7.47606 4.87167
154 1 8.25457 7.17943 5.36466
153 1 8.47354 6.81465 6.77165
162 1 8.62762 7.84849 7.70697
188 1 7.90785 8.4877 11.2158
160 1 7.76734 7.60955 9.9641
74 1 6.48889 6.95463 9.44932
159 1 9.00794 7.22999 9.07068
169 1 6.73922 9.30582 1.95841
86 1 6.06644 9.96053 -0.203473
174 1 7.73335 10.815 3.22688
170 1 6.62547 9.99182 3.23076
179 1 9.06563 10.903 3.23626
181 1 8.30945 11.5046 8.60736
184 1 8.23638 9.31335 7.58182
180 1 7.72108 10.2451 8.65208
178 1 8.60869 11.1896 6.31101
177 1 8.60885 9.81336 6.20928
104 1 6.79088 9.8771 9.81726
110 1 6.99459 9.55508 11.084
115 1 11.023 1.60277 2.28972
112 1 10.3037 1.06115 1.14603
114 1 9.30702 0.986293 0.257956
111 1 10.273 2.16639 3.49883
120 1 10.0726 1.23423 4.48971
126 1 11.0623 0.312742 4.69296
127 1 10.401 0.459054 8.10179
189 1 11.7212 -0.0468295 7.51426
135 1 10.0581 2.55914 10.051
105 1 12.0318 -0.112511 10.2929
131 1 9.73235 1.26762 9.23747
119 1 10.142 4.67591 1.00456
117 1 11.2543 4.40291 1.78508
113 1 9.85122 4.02707 -0.152057
146 1 11.0357 4.66497 3.23726
124 1 9.59486 3.84032 5.01855
128 1 10.365 3.55304 3.85042
157 1 11.2808 5.96482 3.8151
161 1 10.356 5.01736 8.65217
155 1 9.85849 4.79722 7.2762
125 1 10.3957 4.04097 6.21222
122 1 11.7035 3.72804 6.30871
163 1 9.23319 5.70301 9.45082
132 1 11.4307 3.04986 9.80717
136 1 9.37401 2.98751 11.3237
133 1 11.6473 4.52143 9.06319
168 1 11.1548 7.59182 0.723087
143 1 9.17366 6.5313 2.82391
39 1 12.2698 8.42567 0.799192
149 1 9.48869 7.81536 4.9219
138 1 10.0592 6.85123 4.0188
152 1 11.2923 6.84286 6.63477
158 1 11.0851 7.23714 10.5355
79 1 11.0202 6.86011 11.8143
164 1 10.3006 7.95431 9.48036
172 1 9.8758 10.2562 4.23773
173 1 11.0145 11.2041 4.85295
176 1 11.806 10.5657 5.92811
175 1 9.41063 9.21357 5.10394
182 1 11.3627 9.68937 8.0523
186 1 11.5305 10.8427 7.25714
185 1 9.29863 11.7124 7.53909
187 1 10.2276 10.0101 10.286
190 1 10.9764 11.3011 10.361
191 1 9.27552 9.55385 11.1877
183 1 10.5762 9.37849 9.1433
ITEM: TIMESTEP
5000
ITEM: NUMBER OF ATOMS
191
ITEM: BOX BOUNDS pp pp pp
-6.7311752119824361e-02 1.2067311752119776e+01
-6.7311752119824361e-02 1.2067311752119776e+01
-6.7311752119824361e-02 1.2067311752119776e+01
ITEM: ATOMS id type x y z
116 1 0.421516 1.69799 2.56998
4 1 1.46797 2.52905 1.83389
5 1 2.9239 2.28629 1.84067
12 1 1.245 0.68308 4.98716
118 1 0.497955 0.884915 3.76854
31 1 2.95941 1.04625 8.88389
32 1 1.53109 0.762865 8.51881
11 1 0.765592 0.798106 7.34111
17 1 2.47985 2.22751 6.13997
13 1 1.26997 1.41348 6.23314
28 1 0.62368 0.898983 9.63476
29 1 0.448821 2.22143 10.1757
38 1 2.67028 1.92871 11.0015
30 1 1.49535 2.61267 11.2209
7 1 0.364652 4.66746 1.80432
6 1 1.04586 3.6099 1.12141
45 1 1.23238 5.45491 2.41497
57 1 3.00034 4.67357 5.92015
63 1 0.593091 5.05834 8.816
22 1 0.820194 3.76154 6.25744
14 1 2.1891 3.62177 6.12505
34 1 1.38454 3.80232 11.9188
64 1 1.41321 4.97196 11.2402
66 1 1.63686 4.99207 9.82722
42 1 1.01016 8.10865 1.65076
43 1 2.21137 8.31548 0.831973
41 1 1.19238 7.90991 2.93259
54 1 2.52548 7.06293 5.25395
40 1 1.04078 6.48592 3.37444
52 1 0.91486 6.78495 5.63183
53 1 0.195419 6.39297 4.47902
50 1 1.9106 8.83753 3.77166
108 1 1.48811 8.50702 8.75491
67 1 1.75724 7.20953 8.50856
71 1 0.682332 6.3055 8.17291
59 1 0.218369 6.7192 6.82561
77 1 1.52332 6.25784 11.7276
76 1 1.75104 7.69647 11.7568
75 1 1.06921 8.87475 11.013
89 1 0.783062 10.7236 0.767284
84 1 1.04931 10.5754 2.18717
83 1 1.98668 10.2224 3.1159
80 1 0.234739 9.64799 -0.200465
96 1 1.3473 10.5355 5.57661
21 1 2.02647 11.6584 5.12045
109 1 0.469958 9.16702 8.03471
107 1 1.8332 9.15303 9.91362
3 1 4.99925 0.976648 1.48236
1 1 3.84061 1.39553 1.05437
16 1 4.29999 0.221441 5.22667
18 1 3.77594 1.4887 5.86885
10 1 4.81701 2.33946 6.31238
24 1 5.34399 3.02508 8.50007
25 1 3.31173 2.16534 9.79629
36 1 3.16007 0.784238 11.8102
26 1 6.00995 0.540928 8.87969
48 1 4.57923 4.64875 0.705896
8 1 3.63145 3.36438 2.51862
46 1 4.40125 4.43435 2.08019
44 1 5.27209 5.27946 2.71237
58 1 5.71356 4.86913 5.50061
51 1 3.57514 5.93092 5.57349
56 1 5.02443 6.09672 5.53278
9 1 5.29011 3.2988 7.164
78 1 5.2481 4.27243 11.6701
68 1 3.97303 4.56266 9.72258
69 1 5.0148 4.98188 10.5058
27 1 4.20376 3.15603 9.43705
70 1 3.01152 5.2769 9.20575
47 1 4.55981 7.87438 2.66158
82 1 4.49641 8.7676 1.44235
49 1 5.35515 6.65226 2.86992
55 1 5.69699 7.29109 5.72462
92 1 4.32517 8.53884 4.06789
60 1 3.00841 8.26228 4.58324
61 1 5.53383 8.07084 6.87007
62 1 5.60195 7.3722 8.24514
73 1 4.1544 7.52077 8.8298
65 1 3.0971 6.61924 8.6259
102 1 4.17058 8.82763 9.42005
88 1 3.75584 11.2435 1.86513
85 1 3.37084 10.6345 0.629845
91 1 5.70773 9.26297 0.914761
90 1 3.2292 9.30461 0.886859
94 1 5.5477 11.6902 5.38098
97 1 5.63697 10.2806 5.4869
95 1 5.32027 9.60083 4.14627
20 1 3.35264 11.6465 4.46079
87 1 3.07618 11.2021 3.18859
93 1 5.51974 9.57288 6.71928
100 1 5.23767 10.4119 7.90673
106 1 5.03519 11.8163 8.3187
101 1 5.40682 9.66498 9.00312
33 1 3.84822 11.9674 9.09865
98 1 3.36389 11.0622 10.2527
103 1 3.47665 11.5274 11.58
99 1 3.08948 9.73365 9.95769
86 1 6.10829 9.81979 11.8174
2 1 5.81774 0.7588 2.43111
15 1 6.64527 0.143734 4.84951
19 1 6.50072 0.720847 3.53585
123 1 9.01501 0.668181 4.70685
121 1 8.03877 -0.11124 5.26515
129 1 8.27335 0.724155 9.27077
137 1 7.03458 1.36592 9.22975
35 1 6.76204 2.78805 8.94422
130 1 8.82588 2.19882 11.85
134 1 7.43461 2.56453 12.0414
147 1 7.68497 4.52569 2.31985
139 1 8.90183 5.16594 1.98679
156 1 6.74211 4.52823 4.56622
150 1 8.00336 3.98059 5.07395
141 1 6.55661 4.62463 3.17451
151 1 8.45991 5.25249 7.01571
166 1 7.28291 4.69106 7.59727
23 1 6.05549 4.40751 6.76942
165 1 8.16053 4.95809 9.76461
81 1 7.341 5.41392 10.9492
167 1 7.60856 3.88473 8.89678
72 1 6.08027 5.91155 10.4328
37 1 6.4375 3.52534 11.9725
171 1 7.69973 8.13986 1.56789
140 1 7.96552 7.75857 0.129768
142 1 7.79398 7.17115 2.52012
143 1 9.00201 6.33171 2.75804
169 1 6.77008 9.23632 1.8548
144 1 6.73836 6.9849 3.48661
148 1 6.96458 7.34537 4.84546
154 1 8.20192 7.1469 5.49029
153 1 8.48418 6.64857 6.74724
162 1 8.553 7.6587 7.71423
188 1 8.09933 8.62513 11.1097
160 1 7.82322 7.50783 9.84205
74 1 6.57716 6.94466 9.3779
145 1 7.89435 6.36302 11.9271
174 1 7.75969 10.5725 3.29493
170 1 6.54799 9.8709 3.08614
179 1 9.01331 10.4924 3.33495
181 1 8.35757 11.5395 8.64103
184 1 8.38735 9.1166 7.59995
180 1 7.81492 10.116 8.54603
178 1 8.67778 11.1677 6.27441
177 1 8.67869 9.78762 6.31149
104 1 6.7852 9.65559 9.4806
110 1 6.96689 9.49511 10.8557
115 1 11.2175 1.93068 2.19281
112 1 10.559 0.994086 1.19993
114 1 9.48128 1.04724 0.311348
111 1 10.3846 2.30542 3.37615
120 1 10.1082 1.17222 4.15118
126 1 11.3338 0.272299 4.12022
127 1 10.3087 0.737335 7.85591
189 1 11.5216 0.250287 7.25075
135 1 10.2259 2.45281 9.86212
136 1 9.63649 3.08731 11.0718
105 1 12.1598 -0.169635 10.252
131 1 9.66419 1.41755 9.05349
119 1 10.0629 4.79143 1.22654
117 1 11.1064 4.68582 2.09297
146 1 10.8592 4.69031 3.55563
124 1 9.42166 3.98161 5.11635
128 1 10.073 3.58467 4.03489
161 1 10.2914 4.88345 8.56351
155 1 9.86004 4.79075 7.29982
125 1 10.3181 4.03109 6.23368
122 1 11.6022 3.55943 6.21947
163 1 9.37205 5.71685 9.28571
132 1 11.5625 2.94343 9.55311
133 1 11.56 4.21499 8.90102
113 1 10.1087 4.1012 12.0829
168 1 10.9371 7.56532 0.450415
39 1 12.0255 8.5103 0.760676
149 1 9.28892 7.64482 4.73038
138 1 9.90283 6.84554 3.81289
157 1 11.0616 6.00344 4.07127
152 1 11.2446 7.42791 6.88182
159 1 9.06323 7.09686 9.02278
158 1 11.1884 7.17718 10.1207
79 1 10.8679 7.01368 11.357
164 1 10.3903 7.78088 9.12582
172 1 10.0202 10.1762 4.2961
173 1 11.2292 10.9489 4.44995
175 1 9.52323 9.07028 5.15921
176 1 12.0312 10.6224 5.65701
182 1 11.4493 9.84161 7.81622
186 1 11.5424 10.9553 6.88981
185 1 9.15949 11.9425 7.39398
183 1 10.5668 9.20913 8.86362
187 1 10.138 9.9852 9.96226
190 1 10.8306 11.1509 10.2806
191 1 9.20868 9.48258 10.9502
ITEM: TIMESTEP
6000
ITEM: NUMBER OF ATOMS
191
ITEM: BOX BOUNDS pp pp pp
-7.6447250681823634e-02 1.2076447250681774e+01
-7.6447250681823634e-02 1.2076447250681774e+01
-7.6447250681823634e-02 1.2076447250681774e+01
ITEM: ATOMS id type x y z
116 1 0.281066 1.7126 2.69431
4 1 1.29369 2.31578 1.8882
5 1 2.75058 2.18459 1.80132
12 1 1.19808 0.613503 4.87584
118 1 0.203838 0.780528 3.88727
31 1 2.80493 0.94998 8.86831
32 1 1.42064 0.924905 8.56826
11 1 0.696662 0.849936 7.24045
13 1 1.29315 1.2605 6.0596
17 1 2.45981 2.16621 6.04175
28 1 0.572785 1.02309 9.69383
29 1 0.31822 2.37705 10.3651
38 1 2.58424 1.85954 11.1375
30 1 1.43408 2.6776 11.0587
105 1 0.0440267 0.0115567 10.4253
7 1 0.469682 4.644 1.78344
6 1 0.968347 3.56271 1.02709