ITEM: TIMESTEP
1000
ITEM: NUMBER OF ATOMS
191
ITEM: BOX BOUNDS pp pp pp
0.0000000000000000e+00 1.2000000000000000e+01
0.0000000000000000e+00 1.2000000000000000e+01
0.0000000000000000e+00 1.2000000000000000e+01
ITEM: ATOMS id type x y z
12 1 1.20509 0.848646 4.8824
1 1 2.45416 2.21262 3.44646
118 1 0.0568909 0.931156 4.21542
31 1 2.7963 1.20012 8.59879
32 1 1.33362 1.11411 8.47168
11 1 0.524598 1.20419 7.34151
17 1 2.71238 2.40746 6.16634
13 1 1.38231 1.67759 6.10224
28 1 0.600435 1.06936 9.68613
29 1 0.380463 2.49177 10.0643
30 1 1.54051 2.88833 10.6729
38 1 2.76966 2.1392 10.5977
4 1 2.18611 3.42645 1.49308
6 1 1.37529 4.1638 0.681185
7 1 0.316389 4.7799 1.23673
5 1 2.72351 3.38718 2.80547
53 1 0.358511 5.83537 4.1516
14 1 2.48962 3.77126 6.47623
22 1 1.04066 4.12647 6.92577
63 1 0.861504 4.89394 8.19573
34 1 1.60511 4.1806 11.3394
64 1 1.84804 5.17285 10.4568
66 1 1.97643 4.87993 9.13738
39 1 0.181589 8.50532 0.712513
43 1 2.65505 8.15867 0.868042
42 1 1.41328 7.99508 1.5577
45 1 0.410238 6.0196 1.6437
40 1 0.607622 6.50916 2.98891
41 1 1.37971 7.70322 2.91852
54 1 2.3679 6.52629 5.21292
50 1 2.14686 8.46843 3.69532
52 1 1.04645 6.21113 5.25484
60 1 2.43505 7.90596 4.88676
59 1 0.319578 6.54721 6.41356
67 1 1.82448 7.31926 8.10585
71 1 0.824954 6.39916 7.65354
108 1 1.50378 8.72625 8.5489
75 1 1.63839 8.73584 10.9
76 1 2.39605 7.75422 11.4558
77 1 2.36185 6.3648 11.1126
89 1 1.68557 10.4378 0.778156
84 1 1.26087 10.293 2.26055
96 1 1.39937 10.5244 5.80047
21 1 1.92503 11.6793 5.0829
83 1 1.97272 9.86486 3.45811
109 1 0.460584 9.13924 7.92927
107 1 1.96788 9.23301 9.68906
80 1 0.964113 9.47731 11.8748
3 1 3.46182 1.23958 3.5408
16 1 4.12741 0.164967 5.50129
2 1 4.94593 1.47411 3.18049
9 1 5.79569 2.82726 7.153
24 1 5.70492 2.43076 8.65892
26 1 5.83625 0.933983 8.58776
10 1 5.33926 2.06308 6.16372
18 1 3.95423 1.52412 6.0336
25 1 3.47206 2.22466 9.36298
36 1 3.1563 1.05003 11.3995
48 1 4.33373 4.65548 0.709691
44 1 5.99016 5.22315 2.44868
46 1 4.83482 4.57961 2.03733
8 1 3.91788 4.06314 2.96916
58 1 5.89245 4.77236 5.62939
56 1 5.05263 5.94244 5.47293
51 1 3.61934 5.79543 5.77172
70 1 3.40603 5.25056 8.37877
57 1 3.29911 4.88631 6.83742
78 1 5.12797 4.29346 11.5245
68 1 4.40579 4.42649 9.42396
69 1 5.059 5.21573 10.3426
27 1 4.47806 3.0505 9.22505
47 1 5.19546 7.94796 2.43487
82 1 4.90455 8.78538 1.39948
92 1 5.0144 8.61295 3.70179
55 1 5.95341 7.18716 5.53858
73 1 4.19161 7.74413 8.55678
62 1 5.53684 7.49362 7.95057
65 1 3.19209 6.8109 8.4114
61 1 5.63671 8.06901 6.60218
72 1 5.55993 6.5066 10.3029
81 1 5.54413 7.76087 11.0694
88 1 3.49987 11.0428 2.1632
85 1 3.16455 10.4098 1.00517
91 1 5.91697 9.71594 1.04399
90 1 3.67653 9.11918 1.0001
94 1 5.51007 11.7138 5.47563
97 1 5.54044 10.2859 5.25334
87 1 3.11333 10.7168 3.43176
20 1 3.18504 11.8843 4.2963
95 1 5.89847 9.73487 4.04418
93 1 5.64775 9.60237 6.45837
100 1 5.39615 10.4731 7.59658
101 1 5.51693 9.71445 8.84227
106 1 4.93343 11.8978 7.96221
33 1 3.59975 11.9983 8.55921
98 1 3.50555 11.1841 9.68144
103 1 3.22428 11.7935 10.9441
99 1 3.27887 9.79207 9.59418
102 1 4.32834 9.07969 9.01661
114 1 8.60925 1.0636 0.341457
15 1 6.28686 1.03729 5.36838
19 1 6.14573 1.31933 3.9212
121 1 7.76238 0.614062 5.91285
128 1 8.88866 2.97665 3.70562
129 1 8.35478 0.18746 9.37563
130 1 8.26103 2.13424 11.4211
137 1 7.02759 0.504277 9.32774
134 1 6.96563 2.54662 10.8961
35 1 6.87822 2.8466 9.43909
147 1 8.12484 3.78741 2.81579
139 1 8.95702 4.71955 2.11283
141 1 6.86754 4.534 3.29409
150 1 8.14886 4.52859 5.47536
156 1 6.87198 4.6036 4.71775
151 1 8.27125 5.07366 6.80782
166 1 7.22697 4.60737 7.64401
23 1 6.11789 4.13615 6.99852
167 1 7.57641 4.01855 8.90824
165 1 8.33637 4.89564 9.7276
37 1 6.09022 3.28999 11.648
49 1 6.32647 6.66491 2.15676
140 1 7.99375 7.68454 0.383597
142 1 8.58072 7.38481 2.5869
145 1 6.96274 6.67636 0.681379
171 1 8.11027 8.45739 1.63405
144 1 7.31434 7.04926 3.2988
148 1 7.18411 7.1601 4.73754
154 1 8.35935 7.1502 5.53352
153 1 8.1698 6.55922 6.73473
162 1 8.58165 7.49694 7.74916
184 1 8.14193 8.93666 7.51019
188 1 7.99517 8.26872 11.0671
74 1 6.48352 6.90777 9.14608
160 1 7.81743 7.2395 9.89896
169 1 7.09657 9.53003 1.87342
174 1 7.97704 10.9841 3.56656
170 1 6.93637 10.1165 3.21665
177 1 8.34338 9.55504 6.12299
178 1 8.10362 11.1346 6.34415
180 1 7.89147 9.70405 8.60484
181 1 8.60636 10.9521 8.71045
185 1 8.91145 11.4014 7.40967
104 1 6.73251 9.58153 9.41521
110 1 6.49943 9.08283 10.8292
86 1 6.07477 10.1283 11.7812
115 1 10.3233 1.23323 2.44296
116 1 11.6482 0.993539 2.82226
112 1 9.70433 1.22206 1.2498
111 1 9.4857 1.66562 3.53701
126 1 10.9251 0.207048 4.75638
120 1 9.76984 1.11383 4.82804
123 1 9.07273 1.35593 5.95414
127 1 9.85358 0.871564 7.35898
189 1 11.3665 0.497339 7.24559
131 1 9.26943 1.27343 8.8753
135 1 9.92736 2.45712 9.72437
136 1 9.31994 2.91918 10.9834
105 1 11.8296 0.0101488 10.1355
119 1 10.0568 4.12402 1.1601
117 1 11.2913 4.10232 1.87838
157 1 11.3328 4.9189 4.17809
124 1 9.18021 3.70881 5.01453
146 1 11.3855 3.97031 3.30822
138 1 10.2186 5.74187 3.89366
161 1 10.2777 4.94223 8.31128
155 1 9.72347 4.77316 7.05922
133 1 11.4486 4.36918 8.8939
122 1 11.7791 3.7662 6.22739
125 1 10.4313 4.01175 6.05778
163 1 9.44619 5.61201 9.18789
113 1 9.86272 3.82653 11.855
132 1 11.2015 3.12199 9.46298
143 1 9.41135 6.11047 2.82495
168 1 11.139 7.60473 0.563201
149 1 9.69535 7.6531 5.41856
152 1 10.827 7.13612 6.19421
159 1 9.168 7.09184 8.9772
158 1 11.2905 7.02504 10.2119
164 1 10.4181 7.84684 9.49228
79 1 11.2299 6.74242 11.5198
172 1 10.0074 10.0659 4.56232
173 1 11.0291 10.7553 5.07982
175 1 9.42791 9.05859 5.30838
179 1 9.28849 10.6904 3.58403
182 1 11.2861 9.8532 8.11419
186 1 11.4828 11.032 7.29613
176 1 11.9937 10.5963 6.03074
187 1 10.2157 9.88624 10.5578
190 1 10.9942 11.1135 10.7664
183 1 10.5117 9.3033 9.2034
191 1 9.03 9.33326 11.045
ITEM: TIMESTEP
2000
ITEM: NUMBER OF ATOMS
191
ITEM: BOX BOUNDS pp pp pp
-1.1211430471448570e-01 1.2112114304714490e+01
-1.1211430471448570e-01 1.2112114304714490e+01
-1.1211430471448570e-01 1.2112114304714490e+01
ITEM: ATOMS id type x y z
12 1 1.19859 0.65508 4.7724
118 1 0.203748 0.44946 3.80573
13 1 1.24504 1.40238 6.10371
31 1 2.69139 0.954207 8.75562
32 1 1.17215 0.77408 8.56242
11 1 0.523113 0.889158 7.26684
17 1 2.43801 2.23658 6.19212
28 1 0.27873 0.991197 9.61487
38 1 2.65124 1.98534 10.7519
30 1 1.47751 2.71261 11.0205
29 1 0.311802 2.30972 10.1814
7 1 0.307388 4.80182 1.34224
6 1 1.10225 3.83963 0.663526
45 1 0.977174 5.88037 2.05632
4 1 1.73022 2.78531 1.35018
5 1 2.79845 2.76823 2.20168
53 1 0.268325 6.13849 4.39503
14 1 2.23635 3.6769 6.56692
22 1 0.876626 3.98105 7.02735
63 1 0.673619 4.62804 8.34492
34 1 1.4096 4.00665 11.5053
64 1 1.76113 5.02239 10.644
66 1 1.86997 4.78796 9.07976
39 1 0.160484 8.78506 0.952336
43 1 2.31773 8.13627 0.62538
42 1 1.18928 8.17493 1.67251
54 1 2.42657 6.69432 5.67072
50 1 2.0017 8.73747 3.90322
52 1 0.953696 6.39833 5.64635
40 1 0.881144 6.52603 3.25093
60 1 2.43666 8.07594 5.06084
41 1 1.38958 7.79992 2.99121
108 1 1.35637 8.51679 8.68368
67 1 1.64806 7.19412 8.22056
71 1 0.531491 6.25281 7.8606
77 1 1.82064 6.31074 11.2696
76 1 1.73952 7.65471 11.6725
75 1 1.11483 8.90465 11.0613
89 1 1.5724 10.6684 0.773282
84 1 1.40327 10.5748 2.15129
80 1 0.721106 9.73765 -0.0280037
83 1 2.21697 10.0925 3.21958
21 1 1.96445 11.676 5.03538
96 1 1.22428 10.6507 5.56662
176 1 -0.172211 10.655 5.83159
109 1 0.265993 9.1037 7.97836
107 1 1.73036 9.23465 9.77081
3 1 5.08679 1.19815 1.86337
1 1 3.78408 1.80278 2.13141
16 1 4.18557 0.130327 5.51217
18 1 3.91207 1.3736 5.96785
10 1 5.01319 2.07742 6.47502
24 1 5.50025 2.78016 8.71537
25 1 3.27383 2.05483 9.48205
36 1 2.93676 0.873363 11.6483
26 1 5.84385 0.281375 9.14865
48 1 4.13662 5.04632 0.508085
44 1 5.56857 5.16754 2.63047
46 1 4.44202 4.71867 1.89647
8 1 3.26739 4.10829 2.54907
56 1 4.97188 5.85112 5.62731
51 1 3.46316 5.91269 6.00004
70 1 3.07894 5.15874 8.40633
57 1 3.1719 4.79685 6.94256
9 1 5.70041 2.96186 7.29314
78 1 4.91739 4.71744 11.543
68 1 4.14366 4.55604 9.32104
69 1 4.95819 5.24031 10.2491
37 1 5.73056 3.51509 11.6746
27 1 4.27455 3.17089 9.34934
47 1 4.89939 7.69273 2.56385
90 1 3.39356 8.95368 0.770898
82 1 4.58741 8.60574 1.44722
49 1 5.82609 6.59817 2.70102
92 1 4.81284 8.46797 3.779
55 1 5.75092 7.1261 5.56585
73 1 4.11324 7.69453 8.56809
62 1 5.54698 7.5352 8.11539
61 1 5.69071 8.10066 6.67835
65 1 3.06005 6.76533 8.4629
102 1 4.27099 8.94482 9.31406
72 1 5.54755 6.42554 10.0083
81 1 5.61803 7.56604 10.948
88 1 3.59712 11.3082 1.93129
91 1 5.79647 9.45362 1.15203
85 1 3.11548 10.719 0.496895
87 1 3.26728 10.9426 3.40421
94 1 5.59155 11.7954 5.30637
20 1 3.2753 11.5971 4.66467
97 1 5.56883 10.3372 5.36523
95 1 5.76506 9.57933 4.09751
93 1 5.44985 9.6026 6.58522
100 1 5.21732 10.5608 7.76008
101 1 5.40666 9.64115 8.96533
106 1 4.7527 11.9486 8.35874
33 1 3.41009 11.9805 8.96999
98 1 3.1759 11.0585 10.1044
103 1 3.26926 11.6865 11.4526
99 1 3.05379 9.68384 9.92556
86 1 5.96711 9.93067 11.9438
114 1 8.65688 1.79301 0.438965
2 1 6.3113 1.21286 2.63911
15 1 6.96222 0.116235 4.93798
19 1 6.96165 0.625885 3.63446
121 1 8.19068 -0.0224947 5.65707
129 1 8.18216 0.405993 9.43732
130 1 8.13106 2.49068 11.5403
137 1 6.89933 0.515037 9.99616
134 1 6.75324 2.69478 11.1084
147 1 7.82763 4.30008 2.3629
139 1 8.98908 4.96704 2.08539
141 1 6.56167 4.29788 3.27342
150 1 8.18034 3.76225 4.99114
156 1 6.803 4.20745 4.76354
58 1 5.86711 4.59429 5.8048
151 1 8.58997 5.24695 7.03518
166 1 7.5532 4.65303 7.7846
23 1 6.31574 4.20113 7.0803
165 1 8.72488 4.4729 9.96463
35 1 6.70727 3.21688 9.64336
167 1 7.64183 4.16916 9.14578
171 1 7.89655 8.26081 1.56502
140 1 8.08447 7.78412 0.207954
142 1 8.21141 7.33056 2.60539
145 1 8.78788 6.6347 0.206309
144 1 7.03583 6.85298 3.34915
148 1 7.05307 7.02218 4.84171
154 1 8.19397 7.01591 5.52663
153 1 8.388 6.68047 6.79658
162 1 8.5569 7.69466 7.74888
159 1 9.06801 7.05435 9.05017
188 1 7.97171 8.42112 11.1529
160 1 7.74615 7.28939 9.7676
74 1 6.53909 6.86958 9.10155
110 1 6.58627 8.94988 10.9211
169 1 6.95821 9.25422 1.86128
174 1 8.07047 10.7682 3.24979
170 1 6.98777 9.86518 3.20071
177 1 9.02397 9.57107 6.27894
178 1 8.92447 11.0617 6.27721
180 1 7.85112 9.8524 8.59363
181 1 8.33464 11.3342 8.67044
184 1 8.47876 9.00678 7.46808
104 1 6.76153 9.52497 9.48621
191 1 8.96387 9.56072 10.9411
115 1 10.8287 1.55099 2.06392
112 1 9.76052 1.46412 1.04327
116 1 12.1017 0.965373 2.48446
111 1 10.2255 2.00612 3.36002
126 1 11.2007 0.0622028 4.42996
120 1 10.1003 1.02834 4.34792
123 1 9.16152 1.05197 5.31724
127 1 10.1339 0.72012 7.80551
189 1 11.4761 0.243484 7.29892
135 1 10.0276 2.47097 9.9053
131 1 9.31345 1.28537 8.99047
119 1 9.97438 4.4447 1.21799
117 1 11.1876 4.36484 1.88312
157 1 11.2327 5.55753 3.91857
124 1 9.66446 3.69663 5.03556
128 1 10.4573 3.34066 3.88266
146 1 11.1508 4.3349 3.28585
161 1 10.4545 5.05322 8.47364
155 1 9.95662 4.93131 7.14836
122 1 11.8884 3.76647 6.34803
125 1 10.5656 4.06513 6.17593
133 1 11.5914 4.29246 8.99476
163 1 9.47448 5.43907 9.34301
136 1 9.17003 3.34749 10.8136
113 1 9.6731 4.15337 12.0378
132 1 11.3257 2.97191 9.66805
143 1 9.16372 6.23708 2.74953
168 1 11.1239 8.10338 0.742529
149 1 9.78852 7.56726 5.03957
138 1 10.0834 6.57939 3.74249
175 1 9.60687 9.03178 5.15073
152 1 10.8388 7.1976 6.20401
59 1 12.0167 6.63207 6.71042
158 1 11.185 7.67521 10.4327
164 1 10.3757 7.89437 9.26535
79 1 10.9096 7.47209 11.7151
172 1 10.3144 10.0143 4.31229
173 1 11.2288 10.909 4.70691
179 1 9.35735 10.4663 3.47011
182 1 11.4633 9.943 8.08195
186 1 11.5345 11.052 7.12866
185 1 9.37312 11.6486 7.60681
187 1 10.1377 9.99877 10.2014
190 1 10.604 11.3638 10.4032
183 1 10.4943 9.40499 8.9819
105 1 11.645 12.2089 10.1266
ITEM: TIMESTEP
3000
ITEM: NUMBER OF ATOMS
191
ITEM: BOX BOUNDS pp pp pp
-2.3615740797850818e-01 1.2236157407978499e+01
-2.3615740797850818e-01 1.2236157407978499e+01
-2.3615740797850818e-01 1.2236157407978499e+01
ITEM: ATOMS id type x y z
12 1 1.06028 0.627188 5.04083
118 1 -0.0818077 0.746114 3.87852
11 1 0.457507 0.772586 7.50328
32 1 1.21329 0.588434 8.70825
31 1 2.64504 0.630369 8.92235
17 1 2.33734 2.13011 6.5097
13 1 1.17564 1.31948 6.37404
28 1 0.239128 0.838106 9.88786
38 1 2.42466 1.77575 10.9235
30 1 1.23635 2.61358 10.8573
29 1 0.0985301 2.23368 10.1737
36 1 2.5928 0.530912 11.523
7 1 0.116695 4.47126 1.13036
6 1 1.08725 3.72338 0.307857
45 1 0.902899 5.61837 1.86128
4 1 2.04208 2.90814 1.04638
14 1 2.17517 3.63435 6.62692
22 1 0.815845 4.02528 7.12832
63 1 0.409338 4.95016 8.25462
34 1 1.3016 3.8354 11.4959
64 1 1.66584 5.03593 10.7747
66 1 1.66155 4.8091 9.24549
39 1 0.168082 8.24961 0.636819
43 1 2.45614 8.04566 0.526738
42 1 1.34049 8.05622 1.3961
41 1 1.34351 7.88626 2.69789
40 1 1.19797 6.46477 2.87187
54 1 2.63763 6.95418 5.37836
50 1 2.0523 8.69979 3.66938
52 1 1.07713 6.65125 5.2066
53 1 0.42955 6.07448 4.05677
108 1 1.22654 8.42549 8.62495
67 1 1.68285 7.26609 8.21422
71 1 0.654047 6.37472 7.70691
59 1 0.0752591 6.75595 6.47302
109 1 0.317553 9.04023 7.83522
75 1 1.23242 8.71174 11.1225
76 1 2.04645 7.69538 11.7004
77 1 2.14064 6.25602 11.4134
107 1 1.70011 8.97325 9.86904
89 1 1.25498 10.3722 0.575073
84 1 0.987521 10.5558 1.89396
80 1 0.594088 9.43192 -0.330702
85 1 2.88528 10.6653 0.296045
96 1 0.965714 10.7435 5.58508
21 1 1.63891 11.8596 4.8768
83 1 1.78018 10.2354 3.11238
103 1 2.83734 11.6427 11.4322
3 1 5.30259 1.73064 1.87934
1 1 3.94549 1.78512 1.78142
16 1 4.04433 -0.0722397 5.17054
10 1 4.86358 1.76512 6.71333
24 1 5.54026 2.66729 8.81304
26 1 5.8869 -0.0769073 9.05109
9 1 5.65374 2.66682 7.41475
18 1 3.80089 1.28637 5.9988
25 1 3.18822 1.85025 9.58899
27 1 4.13614 2.97624 9.17696
48 1 4.74058 4.94191 0.208091
8 1 3.91699 4.04799 2.21566
46 1 4.70104 5.06634 1.66249
5 1 3.24033 2.87256 1.78523
44 1 5.73356 5.56086 2.49021
56 1 5.09252 5.80162 5.68006
58 1 6.01793 4.66668 5.75193
51 1 3.70979 5.84271 5.82686
70 1 3.07047 5.12354 8.43361
57 1 2.9665 4.7303 6.66257
78 1 5.33105 4.39647 11.6273
68 1 3.93313 4.35801 9.43455
69 1 4.94999 5.0553 10.3447
37 1 5.89476 2.96107 11.8028
47 1 4.77461 7.99128 2.66348
49 1 5.83663 6.99159 2.70709
82 1 4.5496 8.79467 1.37138
60 1 3.16526 8.3275 4.47148
92 1 4.40975 8.48104 3.90686
55 1 6.00731 7.18113 5.61021
73 1 4.04363 7.72809 8.70435
62 1 5.58649 7.49791 8.19291
61 1 5.70787 8.21033 6.77895
65 1 3.06363 6.75741 8.4905
72 1 5.45974 6.35401 10.3448
81 1 5.11535 7.13101 11.3754
102 1 4.10834 8.99432 9.48779
88 1 3.49285 11.4519 1.5826
90 1 3.33055 9.01055 0.718848
91 1 5.62992 9.43115 0.806031
95 1 5.43648 9.46317 4.27488
94 1 5.18497 11.7069 5.37794
97 1 5.23247 10.283 5.48318
20 1 2.94229 11.8231 4.32961
87 1 3.02009 11.1704 3.07438
93 1 5.30807 9.58594 6.82032
100 1 5.09728 10.4048 7.92782
106 1 4.84421 11.724 8.45495
98 1 3.04797 11.1077 10.1543
99 1 2.94706 9.69388 9.83623
101 1 5.29816 9.71655 9.1639
86 1 5.89896 10.0171 12.0723
33 1 3.4952 11.8644 8.87974
2 1 6.1458 1.02787 2.58712
123 1 8.77641 0.419737 5.08531
19 1 6.69568 0.530303 3.76778
15 1 6.51146 -0.1189 5.07753
129 1 8.32118 0.289303 9.45437
134 1 6.88293 2.56892 11.0136
137 1 6.98116 0.600533 9.45185
130 1 8.41018 2.64647 11.598
147 1 7.89914 4.71797 2.23366
139 1 9.1472 5.37832 1.98229
141 1 6.86629 4.90845 3.16123
150 1 8.26949 4.18815 5.0649
156 1 6.90655 4.50542 4.57427
151 1 8.47438 5.30075 7.33143
166 1 7.30514 4.56168 7.84398
23 1 6.31983 3.87873 6.98531
165 1 8.52735 4.56406 10.1028
136 1 8.94618 3.88716 11.3005
35 1 6.70792 2.97401 9.60218
167 1 7.56283 3.98124 9.13826
171 1 7.74005 8.51186 1.59833
140 1 8.29543 8.39904 0.228055
142 1 8.10524 7.57581 2.57383
145 1 9.19157 7.42386 0.0073614
144 1 7.08685 7.27397 3.41896
148 1 7.08182 7.15529 4.78957
154 1 8.34973 7.01517 5.42955
153 1 8.25196 6.66199 6.80367
162 1 8.66422 7.70748 7.76157
184 1 8.26963 9.06518 7.6851
159 1 9.02872 7.00852 9.18263
160 1 7.75631 7.0579 9.72602
74 1 6.35629 6.96377 9.34818
169 1 6.68528 9.45067 1.87442
170 1 6.50958 9.65991 3.27514
174 1 7.75139 10.1937 3.74408
179 1 9.05688 10.3773 3.68779
121 1 7.81509 12.079 5.57245
177 1 8.74322 9.68512 6.34402
178 1 8.6054 11.1404 6.41269
180 1 7.84443 9.98302 8.73997
181 1 8.38908 11.3368 8.69495
104 1 6.66196 9.64194 9.6768
110 1 6.79829 9.62704 11.1289
188 1 8.08265 9.43963 11.787
115 1 10.8873 1.79316 2.24121
112 1 10.2819 1.48444 0.936696
116 1 12.2645 1.39536 2.58869
114 1 9.33519 1.72377 -0.0329814
111 1 10.2769 2.15531 3.52646
120 1 9.85754 0.830989 4.30172
126 1 11.118 0.000772194 4.25118
127 1 10.2606 0.00881186 8.0771
131 1 9.65461 0.830396 9.11241
189 1 11.6271 -0.194522 7.62967
135 1 10.2596 2.08381 9.40083
119 1 9.99835 4.81129 1.03633
117 1 11.2551 4.37697 1.74909
146 1 11.1072 4.3962 3.22473
124 1 9.64916 3.781 5.20403
128 1 10.6061 3.37083 4.01296
157 1 11.4373 5.79118 3.69049
161 1 10.4022 5.00652 8.67248
155 1 9.92821 4.92354 7.31141
133 1 11.7117 4.35975 8.98878
125 1 10.5184 4.12159 6.29914
122 1 11.8747 3.6327 6.41014
163 1 9.37351 5.54261 9.54425
132 1 11.3845 3.01435 9.56479
113 1 9.87243 4.40056 12.1897
168 1 11.5683 7.31214 0.343591
143 1 9.25948 6.79504 2.71081
149 1 10.0133 7.65955 5.18686
138 1 10.4824 6.79436 3.81215
152 1 11.1491 7.25621 6.17983
158 1 10.8576 7.37396 10.6308
164 1 10.2631 7.9221 9.52261
79 1 10.5617 7.07362 12.001
172 1 10.2888 10.2281 4.5189
173 1 11.2825 11.2209 4.89378
176 1 12.085 10.6943 5.89741
175 1 9.80858 9.05574 5.41738
182 1 11.5136 9.66704 8.02845
186 1 11.6084 10.9069 7.21401
185 1 9.25557 11.5418 7.60371
187 1 10.4192 10.2162 10.4924
190 1 11.4272 11.1849 10.8149
191 1 9.35086 10.1661 11.451
183 1 10.6307 9.33229 9.30293
105 1 12.0953 12.2347 10.3219
ITEM: TIMESTEP
4000
ITEM: NUMBER OF ATOMS
191
ITEM: BOX BOUNDS pp pp pp
-2.0922059102597609e-01 1.2209220591025952e+01
-2.0922059102597609e-01 1.2209220591025952e+01
-2.0922059102597609e-01 1.2209220591025952e+01
ITEM: ATOMS id type x y z
4 1 2.02196 2.84846 0.865291
12 1 1.02768 0.629007 4.66385
118 1 -0.198971 0.845092 3.92883
11 1 0.588235 0.822321 7.26715
32 1 1.34361 0.596992 8.53697
17 1 2.37465 2.09803 6.19145
13 1 1.19766 1.30284 6.04878
28 1 0.442513 0.998616 9.64494
38 1 2.49291 2.00648 10.6789
30 1 1.26486 2.76447 10.6814
29 1 0.176142 2.48798 9.95892
36 1 2.69539 0.851869 11.429
105 1 -0.115186 0.178423 10.6325
7 1 0.159313 4.46247 1.24546
6 1 0.910561 3.74016 0.282388
45 1 0.897485 5.42255 1.92148
14 1 2.13135 3.52864 6.58181
22 1 0.658085 3.76288 6.84988
63 1 0.590525 4.83145 8.0864
66 1 1.74972 4.82079 8.95546
34 1 1.22343 3.96268 11.2754
64 1 1.32827 4.95477 10.3089
39 1 0.351251 8.02959 0.477604
43 1 2.61759 7.3088 0.048005
42 1 1.62034 7.55108 1.0723
41 1 1.7618 7.52119 2.55632
54 1 2.69787 6.86171 5.23894
50 1 2.26289 8.43631 3.47614
52 1 1.07092 6.4909 5.34197
53 1 0.547839 6.22787 4.10102
40 1 1.25418 6.27449 2.95816
108 1 1.30325 8.66531 8.58334
67 1 1.62197 7.31079 8.229
71 1 0.626896 6.29474 7.64242
59 1 0.169698 6.62903 6.36401
109 1 0.111653 9.25523 8.13148
75 1 1.4709 8.67773 11.0038
76 1 1.88982 7.28183 11.1336
77 1 1.23862 6.28981 10.673
89 1 1.20604 10.4277 0.617865
84 1 1.03671 9.96276 2.05198
80 1 0.796426 9.17434 -0.252071
85 1 2.38181 11.3707 0.449344
83 1 2.06849 9.75984 3.05041
96 1 1.15441 10.8071 5.448
21 1 1.76588 11.8362 4.63654
107 1 1.8031 9.17164 9.79893
103 1 2.61691 11.7522 11.4563
3 1 5.04546 1.34648 2.08176
1 1 3.79189 1.6687 1.97795
5 1 3.03339 2.69425 1.86442
16 1 3.90607 0.0121107 5.07571
18 1 3.71049 1.22274 6.11874
10 1 4.83258 1.80157 6.65465
24 1 5.56576 2.74117 8.92197
26 1 5.8469 0.174127 8.6177
31 1 2.69508 0.815783 8.78737
9 1 5.654 2.76089 7.47518
25 1 3.32633 2.10527 9.50873
48 1 4.94155 4.5507 0.611724
8 1 3.60655 3.8396 2.35802
46 1 4.79851 4.52983 1.95619
56 1 5.04958 5.82069 5.77177
51 1 3.58292 5.84043 5.92474
44 1 5.78935 5.07802 2.83955
58 1 6.01 4.48364 5.73426
57 1 3.17734 4.75613 6.9129
70 1 3.04204 5.22961 8.52496
78 1 5.03525 4.12741 11.8105
68 1 3.9988 4.4141 9.47406
69 1 4.75206 4.9922 10.6091
37 1 5.74733 2.91466 11.7476
27 1 4.26576 3.11718 9.26632
82 1 4.63895 8.02924 1.32016
90 1 4.00278 7.49743 0.182442
47 1 4.80697 7.51823 2.60073
91 1 5.67047 8.92417 0.814276
60 1 3.17884 8.05103 4.37731
92 1 4.47977 8.26812 3.90994
49 1 5.8101 6.51932 2.93175
73 1 4.10556 7.68112 8.77445
62 1 5.4223 7.37664 8.30373
61 1 5.7307 7.89565 7.04371
65 1 2.99133 6.84436 8.55358
81 1 4.84687 7.19356 11.546
72 1 5.35598 6.40232 10.5301
102 1 4.1072 9.01126 9.49446
88 1 3.07824 11.5577 1.6763
95 1 5.40605 9.4418 4.02546
94 1 5.30805 11.6215 5.25167
97 1 5.49751 10.1376 5.3592
87 1 3.04029 10.8763 3.0126
20 1 2.99737 11.6748 4.16737
93 1 5.36396 9.40519 6.69812
100 1 5.40535 10.4338 7.91533
106 1 4.87085 11.7313 8.34572
98 1 3.13413 11.2085 10.171
99 1 2.93975 9.85703 9.80019
101 1 5.61856 9.72749 9.24236
33 1 3.58403 12.0084 8.99235
114 1 8.97046 1.99005 0.0653166
2 1 6.15194 1.45798 2.92303
123 1 8.75547 0.725046 5.06994
19 1 6.51204 0.91215 4.14057
15 1 6.49567 -0.0610782 5.25294
130 1 8.10069 2.81981 11.5641
134 1 6.89531 2.4884 11.01
137 1 6.91542 0.757394 9.18761
129 1 8.23318 0.313984 9.42931
147 1 8.0236 4.28947 2.49535
139 1 9.04816 5.27286 2.25806
141 1 6.9186 4.36819 3.25356
150 1 8.2377 3.86258 5.29245
156 1 6.96715 4.22167 4.74638
151 1 8.38312 5.46996 7.10185
166 1 7.25024 4.71952 7.75922
23 1 6.21336 4.0276 7.02062
165 1 8.5411 4.69882 10.0336
35 1 6.82949 3.05598 9.63756
167 1 7.41184 4.25026 9.14406
136 1 8.78205 4.01012 11.2684
171 1 7.91364 8.43608 1.75581
140 1 8.47638 8.58574 0.384637
142 1 8.18517 7.4328 2.68165
144 1 7.0901 7.10092 3.50904
148 1 7.23711 7.15442 5.02622
154 1 8.6385 7.21413 5.58269
55 1 5.90383 7.00452 5.85383
153 1 8.53536 6.8353 6.911
162 1 8.73664 7.72353 8.08585
160 1 7.45274 7.22765 9.88762
159 1 8.84715 7.04304 9.31299
74 1 6.12125 6.85492 9.44895
169 1 6.6656 9.0175 1.89291
170 1 6.36647 9.89857 3.03921
174 1 7.68376 10.4929 3.53412
179 1 8.95783 10.4014 3.69564
121 1 7.81628 12.2144 5.69125
177 1 9.03869 9.65497 6.50385
178 1 8.62076 11.3243 6.45642
180 1 8.07283 10.131 8.92107
181 1 8.453 11.45 8.76686
184 1 8.52461 9.15934 7.88602
104 1 6.89351 9.95515 9.81866
110 1 6.97564 9.88477 11.2545
188 1 8.27748 9.61581 11.8681
86 1 5.84716 9.56409 11.9834
115 1 10.5988 1.83937 2.22495
112 1 9.8896 1.80015 1.0026
116 1 11.9777 1.28901 2.52859
111 1 10.0798 2.1321 3.49043
120 1 9.78381 0.950642 4.27754
126 1 11.0391 0.26466 4.58415
127 1 10.1949 0.477629 7.83398
189 1 11.7235 0.0583673 7.54933
131 1 9.52176 1.16866 9.00824
135 1 10.187 2.3095 9.55183
119 1 10.0249 4.76011 1.18819
117 1 11.2688 4.41466 1.7907
113 1 9.55875 4.55691 -0.207338
146 1 11.1246 4.51653 3.30986
124 1 9.62325 3.6966 5.20113
128 1 10.2949 3.44955 3.9829
157 1 11.4849 5.83057 3.85941
161 1 10.3336 5.15154 8.68366
155 1 9.71955 4.76808 7.3214
133 1 11.5318 4.31643 8.95975
125 1 10.3649 3.94934 6.40441
122 1 11.7033 3.35657 6.51115
163 1 9.33069 5.63463 9.51267
132 1 11.3816 3.09417 9.52987
168 1 11.5933 7.2939 0.616415
145 1 9.23747 7.3366 -0.0876778
143 1 9.45166 6.59501 2.7129
149 1 10.1765 7.78846 5.05104
138 1 10.4318 6.88855 3.84407
152 1 11.1928 7.33299 5.87923
158 1 11.0779 7.55739 10.7247
164 1 10.9133 8.35588 9.68288
79 1 10.6183 7.38764 12.0276
172 1 10.2317 10.2475 4.47182
173 1 11.2083 11.2399 4.83231
176 1 12.2042 10.8672 5.83556
175 1 9.92168 9.27987 5.44724
182 1 11.5019 10.1193 8.1559
186 1 11.763 11.1041 7.1895
185 1 9.08603 11.9218 7.53196
187 1 10.4914 10.6196 10.3672
190 1 11.4286 11.6036 10.7222
191 1 9.20438 10.3803 11.242
183 1 10.8227 9.85242 9.31768
ITEM: TIMESTEP
5000
ITEM: NUMBER OF ATOMS
191
ITEM: BOX BOUNDS pp pp pp
-1.3732105108935036e-01 1.2137321051089309e+01
-1.3732105108935036e-01 1.2137321051089309e+01
-1.3732105108935036e-01 1.2137321051089309e+01
ITEM: ATOMS id type x y z
4 1 1.81043 2.80429 1.48132
12 1 1.06384 0.683809 4.6983
13 1 1.23553 1.41899 5.97873
118 1 -0.0510713 0.751426 3.89104
11 1 0.639574 0.880098 7.22418
32 1 1.37993 0.593856 8.4408
31 1 2.74368 0.774849 8.57928
17 1 2.4474 2.28249 6.13507
28 1 0.563383 0.809696 9.53974
38 1 2.65909 1.7566 10.6454
30 1 1.44732 2.58987 10.7341
29 1 0.371767 2.11517 9.89827
7 1 0.366767 4.70722 1.09591
6 1 1.13216 3.6577 0.628683
45 1 1.13245 5.47491 2.02953
22 1 0.909183 3.86483 5.74826
14 1 2.26392 3.72562 6.16647
63 1 0.544991 4.99782 8.3308
34 1 1.36666 3.77362 11.4938
64 1 1.6375 4.90544 10.5939
66 1 1.62953 4.79389 9.13485
39 1 0.241525 8.52199 0.892418
43 1 2.47398 7.60015 0.548125
42 1 1.4264 8.04684 1.52221
54 1 2.73545 7.00606 5.47999
50 1 2.12625 8.74341 3.65883
52 1 1.12412 6.49526 5.4539
40 1 1.27762 6.3714 3.04682
53 1 0.572114 5.99923 4.21075
41 1 1.45296 7.70943 2.83837
108 1 1.38858 8.47194 8.50614
67 1 1.73912 7.07471 8.25325
71 1 0.603049 6.31372 7.78577
59 1 0.154336 6.71669 6.50644
75 1 1.41349 8.7423 11.0814
76 1 1.94718 7.49293 11.5403
77 1 1.8311 6.23843 10.923
107 1 1.90011 8.99199 9.73448
89 1 1.58939 10.5691 0.528526
84 1 1.26466 10.4412 1.95983
80 1 0.759077 9.52651 -0.142793
96 1 0.970143 10.7619 5.31141
21 1 1.74255 11.7791 4.78729
83 1 2.11321 9.93187 2.97402
109 1 0.581754 9.33449 7.75018
105 1 0.0753697 12.053 10.351
3 1 5.30651 1.36727 2.04286
1 1 4.03944 1.78127 2.12404
5 1 3.00403 2.75187 2.47167
16 1 3.91114 0.0903212 5.3079
18 1 3.68159 1.48297 5.95775
10 1 4.8046 2.18498 6.43007
24 1 5.55715 2.5759 8.52246
9 1 5.68778 2.79116 7.12598
26 1 5.91883 0.301364 8.80202
27 1 4.22476 2.79521 9.15678
25 1 3.29394 1.75952 9.34583
36 1 3.00628 0.714462 11.4226
48 1 4.2968 4.62879 0.701785
8 1 3.55048 4.07441 2.93321
46 1 4.52829 4.79807 2.12111
44 1 5.55159 5.52667 2.62311
58 1 5.94231 4.73867 5.54471
70 1 3.04739 5.14129 8.44016
57 1 3.07674 4.8119 6.93745
51 1 3.68689 5.91712 6.18713
78 1 4.74453 4.13274 11.7087
68 1 3.9778 4.2601 9.28432
69 1 4.64598 4.85474 10.4341
37 1 5.80872 3.13132 11.7433
82 1 4.55548 8.2291 1.48803
90 1 3.85797 7.54699 0.507518
47 1 4.79959 7.78692 2.84127
60 1 3.09664 8.26477 4.58663
92 1 4.47458 8.63087 3.90833
49 1 5.67105 6.78712 3.06803
56 1 5.13737 5.84336 5.79916
73 1 3.98831 7.69998 8.76555
62 1 5.27952 7.16933 8.26019
61 1 5.7078 8.03838 6.98017
65 1 2.94802 6.74525 8.70811
81 1 4.69149 6.91196 11.7554
72 1 4.89709 6.23774 10.5534
102 1 4.23175 8.82712 9.67039
74 1 5.85656 6.85054 9.47481
88 1 3.74772 11.0863 1.50743
91 1 5.54821 9.10273 1.0398
85 1 2.91625 11.0092 0.314721
95 1 5.52151 9.53084 4.32
94 1 5.23686 11.6272 5.49751
97 1 5.40356 10.1328 5.65401
20 1 3.01209 11.7055 4.16659
87 1 3.30061 10.9496 2.98086
93 1 5.31822 9.42848 6.86626
100 1 5.22643 10.1924 8.14326
106 1 4.92854 11.5532 8.43009
33 1 3.57849 11.8267 8.9071
98 1 3.31346 11.0428 10.162
99 1 3.12353 9.61934 10.0474
103 1 3.3336 11.6208 11.4099
101 1 5.52864 9.56866 9.38811
86 1 5.8813 9.74388 11.9741
114 1 8.81116 1.96322 0.186656
2 1 6.0403 0.50783 2.70716
15 1 6.47394 0.00653771 5.21902
123 1 8.71956 1.05172 5.3122
19 1 6.83322 -0.0833664 3.76784
121 1 7.86006 0.069673 5.79047
129 1 8.44781 0.265641 9.54521
137 1 6.98403 0.623836 9.43473
130 1 8.22502 2.79392 11.4921
134 1 6.88852 2.76037 10.944
35 1 6.72018 2.87737 9.46851
147 1 7.90861 4.74539 2.20339
141 1 6.81041 4.78214 2.96248
150 1 8.14314 4.43549 4.9014
156 1 6.78056 4.51063 4.42014
151 1 8.57231 5.31639 7.19611
166 1 7.33746 4.54755 7.63113
23 1 6.39147 4.01392 6.71665
167 1 7.46956 4.02712 8.99231
165 1 8.48214 4.48492 9.91226
136 1 8.95407 3.99052 11.1438
171 1 7.87725 8.53725 1.75571
140 1 8.50749 8.37138 0.49717
142 1 8.01429 7.57342 2.77526
144 1 6.88464 7.2478 3.69508
148 1 7.11762 7.26476 5.06762
154 1 8.49737 7.19426 5.55488
55 1 5.87825 7.08503 5.93982
153 1 8.70893 6.66454 6.8551
162 1 8.6864 7.46969 8.05663
184 1 8.52526 8.92209 7.63794
160 1 7.24164 6.67638 9.83186
159 1 8.60657 6.67238 9.20092
169 1 6.58695 9.26852 1.94941
170 1 6.45898 9.90136 3.23651
174 1 7.4875 10.9271 3.43179
179 1 8.83397 10.6247 3.41078
177 1 8.46235 9.72831 6.32446
178 1 8.45409 11.2135 6.40822
180 1 8.00442 9.83844 8.87928
181 1 8.53125 11.2022 8.76544
104 1 6.90657 9.58686 9.8302
110 1 7.08008 9.71524 11.1888
188 1 8.34878 9.36084 11.7704
115 1 10.5605 1.77376 2.34458
112 1 9.87339 1.87047 1.10339
116 1 11.8812 1.43573 2.70304
111 1 9.90553 2.26335 3.58796
120 1 9.92209 1.25419 4.56006
126 1 10.9999 0.214489 4.50858
127 1 10.1208 0.456995 7.86781
189 1 11.5298 0.197505 7.3456
135 1 10.3453 2.30637 9.61849
131 1 9.67214 1.12667 9.16029
119 1 10.0773 5.13843 1.10367
117 1 11.2972 4.64385 1.61647
139 1 9.03888 5.53022 1.98088
146 1 10.984 4.5634 3.15822
124 1 9.4859 4.13745 4.96098
128 1 10.0219 3.62791 3.83063
157 1 11.3866 5.80292 3.9202
122 1 11.815 3.84853 5.91491
161 1 10.4494 4.96292 8.46661
155 1 9.8268 4.70095 7.25505
125 1 10.4197 4.28912 6.05263
133 1 11.6523 4.34015 8.73083
163 1 9.49517 5.51435 9.41127
132 1 11.6005 3.02661 9.35842
113 1 9.78442 4.65167 12.0204
168 1 11.4465 7.65883 0.531611
145 1 9.14809 7.18964 -0.0977371
143 1 9.16965 6.69791 2.80032
149 1 9.81332 7.70706 5.18776
138 1 10.0686 6.64849 3.90696
152 1 11.1802 7.34942 6.09335
158 1 11.0615 7.1707 10.4967
164 1 11.2603 8.08436 9.45262
79 1 10.5222 7.22112 11.8412
172 1 9.87013 10.3327 4.42313
173 1 11.0141 11.198 4.75518
176 1 11.9215 10.7716 5.72289
175 1 9.49659 9.3187 5.36287
182 1 11.6565 10.0401 8.13383
186 1 11.5537 11.0912 7.14395
185 1 9.07514 11.6299 7.6041
187 1 10.5843 10.2145 10.3703
190 1 11.4652 11.1947 10.6578
191 1 9.4236 10.0025 11.1126
183 1 10.9232 9.51148 9.24109
ITEM: TIMESTEP
6000
ITEM: NUMBER OF ATOMS
191
ITEM: BOX BOUNDS pp pp pp
-1.3797360926285820e-01 1.2137973609262810e+01
-1.3797360926285820e-01 1.2137973609262810e+01
-1.3797360926285820e-01 1.2137973609262810e+01
ITEM: ATOMS id type x y z
4 1 1.7705 2.61573 1.16777
12 1 1.1885 0.508129 4.65991
13 1 1.22017 1.34044 5.88934
118 1 -0.0482023 0.49952 3.80152
17 1 2.40401 2.19703 5.95687
11 1 0.678672 0.873769 7.05288
32 1 1.41819 0.927346 8.21738
31 1 2.81923 0.927341 8.58614
28 1 0.634776 0.980301 9.46776
38 1 2.62079 1.94195 10.7116
30 1 1.42063 2.60484 10.8572
29 1 0.385663 2.29388 10.0077
105 1 0.153854 -0.00899939 10.3208
7 1 0.214175 4.41979 1.39742
6 1 1.08012 3.67018 0.590882
45 1 1.13267 5.17685 2.19366