ITEM: TIMESTEP
1000
ITEM: NUMBER OF ATOMS
191
ITEM: BOX BOUNDS pp pp pp
0.0000000000000000e+00 1.2000000000000000e+01
0.0000000000000000e+00 1.2000000000000000e+01
0.0000000000000000e+00 1.2000000000000000e+01
ITEM: ATOMS id type x y z
12 1 1.20509 0.848646 4.8824
1 1 2.45416 2.21262 3.44646
118 1 0.0568909 0.931156 4.21542
31 1 2.7963 1.20012 8.59879
32 1 1.33362 1.11411 8.47168
11 1 0.524598 1.20419 7.34151
17 1 2.71238 2.40746 6.16634
13 1 1.38231 1.67759 6.10224
28 1 0.600435 1.06936 9.68613
29 1 0.380463 2.49177 10.0643
30 1 1.54051 2.88833 10.6729
38 1 2.76966 2.1392 10.5977
4 1 2.18611 3.42645 1.49308
6 1 1.37529 4.1638 0.681185
7 1 0.316389 4.7799 1.23673
5 1 2.72351 3.38718 2.80547
53 1 0.358511 5.83537 4.1516
14 1 2.48962 3.77126 6.47623
22 1 1.04066 4.12647 6.92577
63 1 0.861504 4.89394 8.19573
34 1 1.60511 4.1806 11.3394
64 1 1.84804 5.17285 10.4568
66 1 1.97643 4.87993 9.13738
39 1 0.181589 8.50532 0.712513
43 1 2.65505 8.15867 0.868042
42 1 1.41328 7.99508 1.5577
45 1 0.410238 6.0196 1.6437
40 1 0.607622 6.50916 2.98891
41 1 1.37971 7.70322 2.91852
54 1 2.3679 6.52629 5.21292
50 1 2.14686 8.46843 3.69532
52 1 1.04645 6.21113 5.25484
60 1 2.43505 7.90596 4.88676
59 1 0.319578 6.54721 6.41356
67 1 1.82448 7.31926 8.10585
71 1 0.824954 6.39916 7.65354
108 1 1.50378 8.72625 8.5489
75 1 1.63839 8.73584 10.9
76 1 2.39605 7.75422 11.4558
77 1 2.36185 6.3648 11.1126
89 1 1.68557 10.4378 0.778156
84 1 1.26087 10.293 2.26055
96 1 1.39937 10.5244 5.80047
21 1 1.92503 11.6793 5.0829
83 1 1.97272 9.86486 3.45811
109 1 0.460584 9.13924 7.92927
107 1 1.96788 9.23301 9.68906
80 1 0.964113 9.47731 11.8748
3 1 3.46182 1.23958 3.5408
16 1 4.12741 0.164967 5.50129
2 1 4.94593 1.47411 3.18049
9 1 5.79569 2.82726 7.153
24 1 5.70492 2.43076 8.65892
26 1 5.83625 0.933983 8.58776
10 1 5.33926 2.06308 6.16372
18 1 3.95423 1.52412 6.0336
25 1 3.47206 2.22466 9.36298
36 1 3.1563 1.05003 11.3995
48 1 4.33373 4.65548 0.709691
44 1 5.99016 5.22315 2.44868
46 1 4.83482 4.57961 2.03733
8 1 3.91788 4.06314 2.96916
58 1 5.89245 4.77236 5.62939
56 1 5.05263 5.94244 5.47293
51 1 3.61934 5.79543 5.77172
70 1 3.40603 5.25056 8.37877
57 1 3.29911 4.88631 6.83742
78 1 5.12797 4.29346 11.5245
68 1 4.40579 4.42649 9.42396
69 1 5.059 5.21573 10.3426
27 1 4.47806 3.0505 9.22505
47 1 5.19546 7.94796 2.43487
82 1 4.90455 8.78538 1.39948
92 1 5.0144 8.61295 3.70179
55 1 5.95341 7.18716 5.53858
73 1 4.19161 7.74413 8.55678
62 1 5.53684 7.49362 7.95057
65 1 3.19209 6.8109 8.4114
61 1 5.63671 8.06901 6.60218
72 1 5.55993 6.5066 10.3029
81 1 5.54413 7.76087 11.0694
88 1 3.49987 11.0428 2.1632
85 1 3.16455 10.4098 1.00517
91 1 5.91697 9.71594 1.04399
90 1 3.67653 9.11918 1.0001
94 1 5.51007 11.7138 5.47563
97 1 5.54044 10.2859 5.25334
87 1 3.11333 10.7168 3.43176
20 1 3.18504 11.8843 4.2963
95 1 5.89847 9.73487 4.04418
93 1 5.64775 9.60237 6.45837
100 1 5.39615 10.4731 7.59658
101 1 5.51693 9.71445 8.84227
106 1 4.93343 11.8978 7.96221
33 1 3.59975 11.9983 8.55921
98 1 3.50555 11.1841 9.68144
103 1 3.22428 11.7935 10.9441
99 1 3.27887 9.79207 9.59418
102 1 4.32834 9.07969 9.01661
114 1 8.60925 1.0636 0.341457
15 1 6.28686 1.03729 5.36838
19 1 6.14573 1.31933 3.9212
121 1 7.76238 0.614062 5.91285
128 1 8.88866 2.97665 3.70562
129 1 8.35478 0.18746 9.37563
130 1 8.26103 2.13424 11.4211
137 1 7.02759 0.504277 9.32774
134 1 6.96563 2.54662 10.8961
35 1 6.87822 2.8466 9.43909
147 1 8.12484 3.78741 2.81579
139 1 8.95702 4.71955 2.11283
141 1 6.86754 4.534 3.29409
150 1 8.14886 4.52859 5.47536
156 1 6.87198 4.6036 4.71775
151 1 8.27125 5.07366 6.80782
166 1 7.22697 4.60737 7.64401
23 1 6.11789 4.13615 6.99852
167 1 7.57641 4.01855 8.90824
165 1 8.33637 4.89564 9.7276
37 1 6.09022 3.28999 11.648
49 1 6.32647 6.66491 2.15676
140 1 7.99375 7.68454 0.383597
142 1 8.58072 7.38481 2.5869
145 1 6.96274 6.67636 0.681379
171 1 8.11027 8.45739 1.63405
144 1 7.31434 7.04926 3.2988
148 1 7.18411 7.1601 4.73754
154 1 8.35935 7.1502 5.53352
153 1 8.1698 6.55922 6.73473
162 1 8.58165 7.49694 7.74916
184 1 8.14193 8.93666 7.51019
188 1 7.99517 8.26872 11.0671
74 1 6.48352 6.90777 9.14608
160 1 7.81743 7.2395 9.89896
169 1 7.09657 9.53003 1.87342
174 1 7.97704 10.9841 3.56656
170 1 6.93637 10.1165 3.21665
177 1 8.34338 9.55504 6.12299
178 1 8.10362 11.1346 6.34415
180 1 7.89147 9.70405 8.60484
181 1 8.60636 10.9521 8.71045
185 1 8.91145 11.4014 7.40967
104 1 6.73251 9.58153 9.41521
110 1 6.49943 9.08283 10.8292
86 1 6.07477 10.1283 11.7812
115 1 10.3233 1.23323 2.44296
116 1 11.6482 0.993539 2.82226
112 1 9.70433 1.22206 1.2498
111 1 9.4857 1.66562 3.53701
126 1 10.9251 0.207048 4.75638
120 1 9.76984 1.11383 4.82804
123 1 9.07273 1.35593 5.95414
127 1 9.85358 0.871564 7.35898
189 1 11.3665 0.497339 7.24559
131 1 9.26943 1.27343 8.8753
135 1 9.92736 2.45712 9.72437
136 1 9.31994 2.91918 10.9834
105 1 11.8296 0.0101488 10.1355
119 1 10.0568 4.12402 1.1601
117 1 11.2913 4.10232 1.87838
157 1 11.3328 4.9189 4.17809
124 1 9.18021 3.70881 5.01453
146 1 11.3855 3.97031 3.30822
138 1 10.2186 5.74187 3.89366
161 1 10.2777 4.94223 8.31128
155 1 9.72347 4.77316 7.05922
133 1 11.4486 4.36918 8.8939
122 1 11.7791 3.7662 6.22739
125 1 10.4313 4.01175 6.05778
163 1 9.44619 5.61201 9.18789
113 1 9.86272 3.82653 11.855
132 1 11.2015 3.12199 9.46298
143 1 9.41135 6.11047 2.82495
168 1 11.139 7.60473 0.563201
149 1 9.69535 7.6531 5.41856
152 1 10.827 7.13612 6.19421
159 1 9.168 7.09184 8.9772
158 1 11.2905 7.02504 10.2119
164 1 10.4181 7.84684 9.49228
79 1 11.2299 6.74242 11.5198
172 1 10.0074 10.0659 4.56232
173 1 11.0291 10.7553 5.07982
175 1 9.42791 9.05859 5.30838
179 1 9.28849 10.6904 3.58403
182 1 11.2861 9.8532 8.11419
186 1 11.4828 11.032 7.29613
176 1 11.9937 10.5963 6.03074
187 1 10.2157 9.88624 10.5578
190 1 10.9942 11.1135 10.7664
183 1 10.5117 9.3033 9.2034
191 1 9.03 9.33326 11.045
ITEM: TIMESTEP
2000
ITEM: NUMBER OF ATOMS
191
ITEM: BOX BOUNDS pp pp pp
-1.1166730664827969e-01 1.2111667306648275e+01
-1.1166730664827969e-01 1.2111667306648275e+01
-1.1166730664827969e-01 1.2111667306648275e+01
ITEM: ATOMS id type x y z
4 1 1.62151 2.8188 1.56006
116 1 -0.0561156 0.978027 2.68944
5 1 2.85037 2.75971 2.40048
12 1 1.21082 0.605488 4.8436
118 1 0.125865 0.361653 3.98453
31 1 2.76273 0.897122 8.74183
32 1 1.32886 0.701411 8.62954
11 1 0.713829 0.852286 7.30587
13 1 1.35126 1.40519 6.07771
17 1 2.58054 2.12801 6.14829
28 1 0.34869 0.866771 9.72561
29 1 0.304042 2.29256 10.2127
30 1 1.38987 2.66544 10.9833
38 1 2.64854 2.0172 10.7699
7 1 0.433312 4.89917 1.46558
6 1 1.00109 3.78915 0.819477
45 1 1.05547 5.81469 2.17267
14 1 2.34179 3.47729 6.66297
22 1 0.959186 3.7675 7.10214
63 1 0.7852 4.5657 8.34635
34 1 1.32232 3.96233 11.6275
64 1 1.76811 5.07199 10.6819
66 1 1.89325 4.6465 9.26822
39 1 0.123284 8.6791 0.954368
43 1 2.30177 8.14477 0.80043
42 1 1.19904 8.10112 1.71646
54 1 2.54754 6.64422 5.48708
50 1 2.29018 8.74167 3.8539
52 1 0.931962 6.3559 5.57519
40 1 1.02516 6.51912 3.31628
60 1 2.6766 7.93825 4.92642
53 1 0.284048 6.25866 4.41729
41 1 1.46443 7.86333 3.0448
108 1 1.4868 8.47303 8.60498
67 1 1.82412 7.09591 8.29969
71 1 0.767309 6.2841 7.99444
59 1 0.160131 6.55126 6.82101
75 1 1.20976 8.85371 11.0153
76 1 1.83781 7.64122 11.6821
77 1 2.12845 6.27056 11.3727
89 1 1.54228 10.6451 0.688131
84 1 1.39844 10.5574 2.11843
80 1 0.702364 9.62482 -0.0566307
83 1 2.2942 10.0453 3.20543
21 1 1.93374 11.6284 5.12436
96 1 1.12196 10.517 5.39485
109 1 0.402767 9.09983 8.11326
107 1 1.85587 9.14399 9.76167
3 1 5.11737 1.26414 2.00806
1 1 3.86706 1.79697 2.15214
16 1 4.15365 0.0703895 5.5014
18 1 3.89614 1.45227 5.79716
26 1 5.84801 0.83246 8.8173
24 1 5.62403 2.33548 8.6661
10 1 5.01335 2.09035 6.26853
9 1 5.71554 2.84898 7.24335
25 1 3.1332 2.13924 9.45041
36 1 3.00663 0.864997 11.6368
48 1 4.2272 4.86635 0.641403
44 1 5.51679 5.3029 2.64943
46 1 4.37843 4.71974 2.10017
8 1 3.37943 3.96099 2.72431
56 1 5.06745 5.70878 5.62538
51 1 3.58286 5.69664 5.90511
58 1 5.8822 4.55168 5.71823
70 1 3.16914 5.16223 8.50976
57 1 3.13309 4.6986 6.90283
78 1 4.86777 4.58021 11.6309
68 1 4.27358 4.34996 9.26293
69 1 4.7104 5.17924 10.382
37 1 5.80457 3.53972 11.5874
27 1 4.28996 2.98593 9.17793
47 1 5.02336 7.77171 2.34556
82 1 4.61189 8.67691 1.30312
92 1 5.00644 8.39842 3.58432
55 1 5.73089 7.10311 5.53223
73 1 4.11681 7.70751 8.62298
62 1 5.45108 7.47466 8.03452
61 1 5.65614 8.06608 6.65647
65 1 3.18333 6.68164 8.57213
72 1 5.25638 6.40683 10.1404
81 1 5.42533 7.6336 10.8922
102 1 4.24208 8.98427 9.24302
88 1 3.49712 11.4338 1.90187
85 1 3.09004 10.6243 0.496952
91 1 5.75909 9.46614 0.96274
90 1 3.29225 9.08906 0.888942
94 1 5.51709 11.7328 5.40751
20 1 3.24475 11.5764 4.63624
97 1 5.57883 10.3267 5.27449
87 1 3.23179 11.1078 3.27736
95 1 5.74013 9.5491 4.01775
93 1 5.41161 9.67203 6.51697
100 1 5.34588 10.6535 7.74363
101 1 5.47927 9.66179 8.75987
106 1 4.93774 12.1196 8.28817
99 1 3.24839 9.72009 9.94471
98 1 3.36776 11.1262 10.1261
103 1 3.24269 11.6826 11.5015
86 1 5.91265 9.98239 11.8454
33 1 3.54349 12.0653 9.06345
114 1 8.77068 1.82247 0.314019
2 1 6.26529 1.42553 2.72944
15 1 6.80545 0.198456 4.97618
19 1 6.91 0.713273 3.62251
123 1 8.9588 1.10769 5.38813
121 1 8.08684 -0.0171477 5.63175
129 1 8.27625 0.399069 9.4438
130 1 8.16246 2.49862 11.4763
137 1 6.79769 0.46479 9.84789
134 1 6.73399 2.69692 11.0366
35 1 6.69468 2.91839 9.48353
147 1 7.77602 4.64276 2.39425
139 1 8.98486 5.30202 1.97585
141 1 6.62156 4.57354 3.25333
150 1 8.20104 3.85327 4.94064
156 1 6.88118 4.37412 4.65101
151 1 8.51787 5.32102 6.83785
166 1 7.41653 4.50553 7.6572
23 1 6.22296 4.03184 7.04563
167 1 7.60276 3.95711 8.97875
165 1 8.63753 4.36873 9.7665
171 1 7.90124 8.47691 1.45198
140 1 7.59976 7.62266 0.256454
142 1 8.24739 7.64216 2.57674
145 1 6.57213 6.60489 0.650212
49 1 5.99734 6.63866 2.10483
144 1 7.03058 7.14202 3.27513
148 1 7.05168 7.07423 4.80653
154 1 8.26678 7.06783 5.41562
153 1 8.43379 6.71623 6.68963
162 1 8.54172 7.61966 7.77925
184 1 8.43625 9.00695 7.55575
74 1 6.21466 6.64691 9.01255
188 1 7.7782 8.23338 11.0479
160 1 7.71235 7.17983 9.80334
159 1 9.03335 6.97902 9.10602
110 1 6.46725 8.88155 10.806
169 1 6.93002 9.43159 1.68741
170 1 6.94943 9.9639 3.1452
174 1 8.03084 10.7841 3.5047
177 1 8.84905 9.72905 6.30397
178 1 8.74016 11.1039 6.39099
180 1 7.86418 9.88541 8.65734
181 1 8.50565 11.2151 8.79185
104 1 6.70391 9.58461 9.47159
191 1 8.93005 9.33585 10.8932
115 1 10.8006 1.36049 2.29841
112 1 9.85874 1.30349 1.03659
111 1 10.1717 2.05331 3.42422
126 1 11.1872 0.12621 4.67157
120 1 10.1202 1.13943 4.5416
127 1 10.1611 0.540798 7.79274
189 1 11.5295 0.139666 7.40934
131 1 9.41069 1.37785 9.04242
135 1 10.0526 2.46016 9.69667
119 1 9.9292 4.74826 1.03305
117 1 11.2812 4.74088 1.79613
157 1 11.108 5.81698 3.81985
124 1 9.68401 3.75283 4.99482
128 1 10.4415 3.34253 3.87069
146 1 11.0482 4.5323 3.30229
161 1 10.4363 5.10101 8.46658
155 1 9.95012 4.9087 7.09481
122 1 11.9472 3.77334 6.37065
125 1 10.5909 3.9619 6.15114
133 1 11.5551 4.4368 8.98554
163 1 9.34987 5.50758 9.22691
136 1 9.24732 3.25411 10.6713
113 1 9.76084 4.22404 12.0776
132 1 11.4067 2.96745 9.59127
143 1 9.20084 6.55895 2.82999
168 1 11.1685 7.94391 0.716537
149 1 9.46474 7.75175 4.87169
138 1 10.0831 6.80635 3.96456
152 1 11.3274 7.60401 6.75607
158 1 11.231 7.47348 10.4895
164 1 10.4943 7.75908 9.33877
79 1 10.7956 7.53571 11.7761
172 1 10.2403 10.09 4.31159
173 1 11.1089 10.9784 4.87398
179 1 9.38242 10.7218 3.45869
176 1 11.9946 10.617 5.82172
175 1 9.48078 9.14464 5.12532
182 1 11.4692 9.90402 8.10893
186 1 11.6365 10.9686 7.21038
185 1 9.27796 11.5632 7.65482
187 1 10.0873 9.93316 10.1849
190 1 10.7927 11.1256 10.3944
105 1 11.7467 12.0944 10.2131
183 1 10.4827 9.23406 9.12836
ITEM: TIMESTEP
3000
ITEM: NUMBER OF ATOMS
191
ITEM: BOX BOUNDS pp pp pp
-2.3375075913100454e-01 1.2233750759131006e+01
-2.3375075913100454e-01 1.2233750759131006e+01
-2.3375075913100454e-01 1.2233750759131006e+01
ITEM: ATOMS id type x y z
4 1 1.76973 2.93629 1.32962
12 1 0.931752 0.400924 4.87506
118 1 -0.114537 0.556661 3.78838
11 1 0.686786 0.577912 7.40027
32 1 1.32907 0.550069 8.64271
17 1 2.50327 1.93619 6.15131
31 1 2.75217 0.644945 8.88691
13 1 1.31034 1.10393 6.12745
28 1 0.505304 0.690385 9.7632
29 1 0.176475 1.94298 10.1691
30 1 1.24007 2.46387 11.0112
38 1 2.52827 1.55525 10.9954
7 1 0.100748 4.5712 1.22612
6 1 0.928255 3.6663 0.492796
45 1 0.842441 5.43451 2.04494
5 1 2.74567 3.46292 2.39192
14 1 2.03551 3.53861 6.59826
22 1 0.599592 3.76268 7.03601
63 1 0.509256 4.70085 8.51586
34 1 1.29581 3.63815 11.5297
64 1 1.68871 4.82826 10.7998
66 1 1.74591 4.52778 9.35067
39 1 0.362271 8.30895 0.963856
42 1 1.58088 7.80857 1.45847
43 1 2.59789 7.71962 0.549447
41 1 1.6851 7.37187 2.75739
54 1 2.17559 6.46156 5.49784
50 1 2.05056 8.39603 3.6482
52 1 0.597579 6.31183 5.4467
60 1 2.34108 7.78836 4.90642
53 1 -0.162747 6.19255 4.20787
40 1 0.860552 6.25954 3.11212
108 1 1.50366 8.46404 8.87009
67 1 1.73058 7.04487 8.61465
71 1 0.714346 6.13754 8.02214
59 1 0.127095 6.62316 6.82438
75 1 1.38139 8.53946 11.2763
76 1 2.05846 7.40071 11.777
77 1 2.03813 6.04853 11.3826
107 1 1.83667 8.98718 10.0741
89 1 1.34175 10.317 0.640227
84 1 0.958424 10.2615 2.06767
80 1 0.7692 9.21534 -0.16489
96 1 1.25041 10.6976 5.30744
21 1 1.79324 11.7757 4.6412
83 1 1.91746 9.71591 3.033
176 1 -0.139735 10.7948 5.67977
109 1 0.592167 9.24486 8.16232
105 1 -0.0398801 11.9901 10.3736
1 1 3.35659 2.39523 3.03058
18 1 3.75935 1.13076 6.03199
2 1 5.81018 1.68582 3.37259
3 1 4.48869 1.83694 3.17124
10 1 4.75685 2.28111 6.24113
24 1 5.5082 2.1784 8.58119
26 1 5.77731 0.713658 8.57706
9 1 5.64585 2.80631 7.24574
25 1 3.10439 1.80323 9.66856
27 1 4.17227 2.63208 9.42609
36 1 2.86288 0.389347 11.6448
48 1 4.99036 5.40892 0.184861
44 1 5.41412 6.0661 2.49797
46 1 4.56927 5.38462 1.64092
8 1 3.59829 4.53497 2.26761
58 1 5.8057 4.75076 5.65548
56 1 4.8282 5.88035 5.75683
70 1 2.97996 4.95073 8.60267
57 1 2.91759 4.69753 7.0432
51 1 3.27024 5.71108 6.03791
78 1 4.99861 4.26136 11.7394
68 1 4.19582 4.06113 9.38591
69 1 4.96085 4.85405 10.2624
37 1 5.64437 3.03059 11.7085
47 1 4.73144 8.4534 2.47364
82 1 4.75147 8.78091 1.11242
90 1 3.42348 8.86024 0.542705
55 1 5.55417 7.16253 5.75761
49 1 5.59476 7.36092 2.87959
73 1 4.22758 7.57856 8.85271
62 1 5.61013 7.50611 8.20781
61 1 5.54512 8.24633 6.77917
65 1 3.04248 6.52147 8.73084
102 1 4.33541 8.8484 9.404
72 1 5.8439 5.95866 10.5281
81 1 5.83675 6.36753 11.9977
88 1 3.57926 11.0704 1.73186
91 1 5.8309 9.51589 0.582054
85 1 2.94811 10.5152 0.447064
94 1 5.49949 11.8256 5.48666
97 1 5.61314 10.4098 5.49968
87 1 3.35563 10.5783 3.10021
95 1 5.84155 10.0535 3.98481
20 1 3.20602 11.6324 4.3354
92 1 4.48187 9.65175 3.19742
16 1 4.08976 12.3235 5.28
93 1 5.48745 9.67421 6.71977
100 1 5.2805 10.5332 8.02478
106 1 4.98876 11.9166 8.53673
101 1 5.53155 9.62422 9.13345
99 1 3.1282 9.59004 9.9034
98 1 3.40748 11.018 10.105
33 1 3.58586 11.9709 9.05826
103 1 3.22189 11.4254 11.5866
86 1 6.13181 9.82104 11.8289
114 1 8.97133 1.97607 -0.157096
15 1 6.67121 -0.0116625 4.96629
19 1 6.66907 0.958554 4.05249
123 1 8.96613 0.785766 5.12959
137 1 7.128 0.516462 9.07331
134 1 6.90734 2.84587 11.0232
129 1 8.54233 0.0353895 9.32578
147 1 7.67251 4.83629 2.10229
139 1 8.97532 5.64369 1.86894
156 1 6.83418 4.76196 4.60712
150 1 8.04089 4.10629 4.85125
141 1 6.5361 5.13816 3.08357
151 1 8.35687 5.36428 7.18314
166 1 7.27604 4.64888 7.74568
23 1 6.24062 4.11223 6.88794
167 1 7.61801 4.0959 8.98379
165 1 8.59599 4.59994 9.92285
136 1 8.89826 4.35615 11.2199
35 1 6.78261 3.12343 9.55975
130 1 8.25367 3.05101 11.6924
171 1 7.81627 8.56007 1.57399
140 1 7.94025 7.87868 0.301616
145 1 7.13539 6.84134 0.0206807
143 1 9.02868 6.73418 2.80789
142 1 7.99548 7.62456 2.72709
144 1 6.83081 7.5968 3.62859
148 1 6.87462 7.44159 4.97875
154 1 8.19528 7.16084 5.55228
153 1 8.35928 6.72592 6.92358
162 1 8.74498 7.72746 7.80046
188 1 8.1779 8.66845 11.2431
160 1 7.87921 7.38395 10.0322
74 1 6.65407 6.80683 9.63381
169 1 6.97743 9.69258 1.62447
174 1 8.14454 10.876 3.24983
170 1 6.93014 10.2911 2.97428
121 1 8.13846 12.2395 5.37323
177 1 8.7006 9.8768 6.11727
178 1 8.6675 11.2842 6.31053
180 1 7.84638 10.0373 8.42606
181 1 8.67496 11.2139 8.64564
184 1 8.33113 9.14989 7.44507
104 1 6.97617 9.67592 9.4547
110 1 7.08536 9.58859 10.7899
115 1 10.5296 1.65815 2.04849
112 1 9.88044 1.72217 0.85746
116 1 11.9116 1.25033 2.52632
111 1 9.89057 2.04744 3.34024
120 1 10.0607 1.01973 4.35702
126 1 11.0827 0.1347 4.41063
127 1 10.343 0.134594 7.80227
131 1 9.66289 0.879279 8.78043
189 1 11.7322 -0.213386 7.42032
135 1 10.3695 2.0056 9.29254
132 1 11.5094 2.75163 9.58968
119 1 10.0185 5.08519 0.912566
117 1 11.1208 4.62545 1.69408
146 1 10.815 4.44825 3.1059
124 1 9.44246 3.84254 5.01092
128 1 9.98663 3.44255 3.72007
157 1 11.0159 5.75926 3.81836
161 1 10.4939 4.90698 8.56476
155 1 9.71864 4.76942 7.28912
122 1 11.6619 3.93486 6.46145
125 1 10.2625 4.09408 6.22349
133 1 11.6481 4.19478 9.1079
163 1 9.50414 5.63766 9.42849
113 1 9.69423 5.01813 12.0363
168 1 11.6469 7.68324 0.521767
149 1 9.42503 7.61629 4.95242
138 1 9.89964 6.6623 4.00238
152 1 11.3905 7.19171 6.95761
158 1 11.3512 7.13675 10.482
164 1 10.5408 7.87183 9.47003
79 1 11.3737 7.30722 11.8069
159 1 9.20024 7.09366 9.27676
172 1 10.2386 10.134 4.20869
173 1 11.2739 11.1701 4.63389
179 1 9.38342 10.5939 3.19318
175 1 9.66943 9.03522 5.10254
182 1 11.7994 9.82782 8.06558
186 1 11.953 10.8592 7.08986
185 1 9.35238 11.6261 7.49391
183 1 10.8766 9.33015 9.12384
187 1 10.6853 10.1001 10.3072
190 1 11.614 11.0668 10.5713
191 1 9.48048 9.69946 11.0382
ITEM: TIMESTEP
4000
ITEM: NUMBER OF ATOMS
191
ITEM: BOX BOUNDS pp pp pp
-1.8703035979440777e-01 1.2187030359794429e+01
-1.8703035979440777e-01 1.2187030359794429e+01
-1.8703035979440777e-01 1.2187030359794429e+01
ITEM: ATOMS id type x y z
12 1 1.20992 0.385089 4.86643
118 1 0.0167039 0.452644 3.90694
11 1 0.364028 0.615665 7.44813
32 1 1.22727 0.713934 8.59515
31 1 2.75548 0.66424 8.83392
17 1 2.20086 2.17169 6.17858
13 1 1.07811 1.12491 6.174
28 1 0.404494 1.04126 9.6632
29 1 0.219474 2.42163 9.90997
30 1 1.33668 2.6766 10.8973
38 1 2.45832 1.74931 10.8417
36 1 2.56767 0.534302 11.5956
45 1 0.765056 5.31591 2.17696
6 1 0.673358 3.91877 0.386066
7 1 -0.0142792 4.52191 1.40644
4 1 1.64529 3.05131 1.01646
14 1 2.1222 3.58363 6.47405
22 1 0.626628 3.86762 6.91609
63 1 0.555005 4.83425 8.30482
34 1 1.1146 4.01913 11.4905
64 1 1.51321 4.97668 10.5816
66 1 1.71181 4.6094 9.17082
39 1 0.528541 8.13679 0.730831
42 1 1.78223 7.55097 1.29505
43 1 2.71816 7.77124 0.326008
41 1 2.00692 7.21874 2.59779
54 1 2.62416 6.70858 5.43057
50 1 2.30851 8.19336 3.51725
52 1 1.04241 6.46252 5.44623
40 1 1.17177 6.24116 3.08998
53 1 0.402832 6.26173 4.26013
108 1 1.20433 8.30733 8.62381
67 1 1.86838 7.04714 8.31729
109 1 0.0378925 8.62758 7.92508
59 1 0.232135 6.64885 6.5518
71 1 0.626947 6.1132 7.75424
75 1 1.34009 8.60457 11.1272
76 1 2.22917 7.48344 11.4115
77 1 1.80648 6.31072 10.9243
89 1 1.3968 10.3764 0.636572
84 1 1.35861 10.3268 2.21306
80 1 0.808786 9.31195 -0.048384
96 1 1.22815 10.5595 5.67332
21 1 1.96614 11.5558 4.96505
83 1 2.17302 9.5352 3.00672
176 1 -0.165873 10.5555 5.94099
103 1 2.91327 11.4663 11.422
107 1 1.56329 9.07449 9.74491
1 1 4.01988 2.44878 1.36614
3 1 4.97427 1.97994 2.11634
16 1 4.14658 0.247133 5.24239
2 1 5.86892 1.674 3.07722
10 1 4.7575 2.08056 6.39546
24 1 5.52059 2.4858 8.70513
26 1 5.77349 0.0689846 8.64387
9 1 5.72549 2.69916 7.27783
18 1 3.64179 1.3933 5.94729
25 1 3.27695 1.75792 9.70777
27 1 4.25281 2.65098 9.36279
48 1 5.43641 5.36434 0.242064
44 1 5.40927 5.97088 2.67918
46 1 4.63257 5.46498 1.58534
8 1 3.46672 4.7566 1.64315
5 1 2.958 3.40591 1.54582
56 1 5.0557 5.68592 5.96605
70 1 3.07724 4.90693 8.64571
57 1 3.12809 4.56434 6.82107
51 1 3.6122 5.71275 6.15981
78 1 4.98022 4.17364 11.88
68 1 3.99108 4.1595 9.58527
69 1 4.74792 4.84593 10.6338
37 1 5.71285 2.98104 11.8252
72 1 5.68272 5.86718 10.4382
47 1 4.77098 8.50696 2.5736
82 1 4.72348 8.90796 1.1307
90 1 3.54707 9.06476 0.340108
49 1 5.51574 7.33064 2.89943
55 1 5.93921 6.96554 5.8382
60 1 3.12542 7.70299 4.51324
65 1 3.15276 6.42936 8.73399
62 1 5.55862 7.27662 8.37665
61 1 5.58259 7.95364 6.8985
73 1 4.13416 7.47278 8.86985
102 1 4.13581 8.82085 9.48467
88 1 3.47035 11.1579 1.62093
91 1 5.86153 9.70275 0.815786
85 1 2.98631 10.5388 0.2904
94 1 5.45621 11.9327 5.41307
97 1 5.54803 10.3971 5.43383
87 1 3.65934 10.6857 3.11352
92 1 4.62426 9.62633 3.41976
20 1 3.28446 11.672 4.42385
95 1 5.81294 10.0335 4.05862
93 1 5.47041 9.65705 6.69186
100 1 5.03514 10.3128 7.87619
106 1 4.73426 11.5842 8.37547
33 1 3.49886 11.8736 8.94425
101 1 5.27072 9.56933 9.05437
99 1 2.96453 9.56256 9.76963
98 1 3.25581 10.9863 10.1844
114 1 9.06067 1.79908 0.131274
15 1 6.68785 0.155614 5.15835
19 1 6.60329 1.14645 4.01721
123 1 9.04447 0.776928 5.29039
121 1 7.90073 -0.00934363 5.70619
134 1 6.81629 2.6559 10.975
137 1 6.89247 0.429651 9.19495
129 1 8.27753 0.237201 9.41155
130 1 8.24766 2.58998 11.5262
147 1 7.58786 4.83386 2.35728
139 1 8.91535 5.48116 1.99452
156 1 6.79365 4.67208 4.62895
150 1 8.06737 4.02471 4.81447
141 1 6.44683 5.00866 3.15916
58 1 5.98676 4.56799 5.75952
151 1 8.45202 5.39672 7.1571
166 1 7.48318 4.4743 7.74236
23 1 6.57382 3.70619 6.80058
167 1 7.52533 4.04596 9.09024
165 1 8.52768 4.55569 9.98451
136 1 8.69005 4.0061 11.3225
35 1 6.62768 2.95818 9.55372
171 1 7.72902 8.50721 1.4501
140 1 7.89177 8.18515 0.0072934
142 1 7.98707 7.49202 2.60491
143 1 9.15102 6.70463 2.7405
144 1 6.85156 7.50742 3.57817
148 1 7.09176 7.085 5.03774
154 1 8.30867 7.085 5.5775
153 1 8.29714 6.72846 6.96145
162 1 8.53553 7.73358 7.94906
184 1 8.43359 9.0486 7.67912
145 1 7.46537 6.98536 11.4972
160 1 7.55367 7.1337 10.0581
74 1 6.334 6.88741 9.37815
81 1 6.32487 6.2884 11.8384
159 1 8.90688 7.16755 9.20119
169 1 6.91799 9.58543 1.86676
174 1 8.22954 10.7849 3.31233
170 1 7.01074 10.1208 3.19183
177 1 8.66844 9.68385 6.40099
178 1 8.44744 11.1277 6.5059
180 1 7.87147 9.99555 8.76441
181 1 8.63051 11.2715 8.92404
104 1 6.75839 9.57834 9.63499
110 1 6.83833 9.87044 10.9903
188 1 8.18679 9.50987 11.6161
86 1 6.12121 10.36 12.0364
115 1 10.8767 1.35695 2.16343
112 1 9.89016 1.36681 1.04266
116 1 12.2116 0.820516 2.58211
111 1 10.1335 1.81361 3.42136
120 1 10.0751 0.710184 4.38807
127 1 10.2499 0.253794 7.84153
131 1 9.52287 1.13164 8.85364
189 1 11.6088 -0.116464 7.55577
135 1 10.2682 2.34832 9.22744
105 1 12.051 0.046437 10.222
119 1 9.71573 4.63146 1.28735
117 1 11.0139 4.46343 1.85543
113 1 9.46985 4.47827 -0.0359232
146 1 10.9693 4.39385 3.22274
124 1 9.48991 3.6942 5.13422
128 1 10.1955 3.19819 3.91112
157 1 11.2268 5.92481 3.92432
161 1 10.3777 5.10826 8.63066
155 1 9.85008 4.86868 7.31596
122 1 11.8026 3.86217 6.17593
125 1 10.2872 4.09415 6.22704
163 1 9.49936 5.61345 9.51082
132 1 11.3918 3.09494 9.55222
133 1 11.5639 4.44465 9.08919
168 1 11.6594 7.54412 0.762757
149 1 9.49537 7.63413 5.02426
138 1 10.0807 6.9379 3.8352
152 1 12.0848 7.90277 6.79611
158 1 10.5446 7.52091 10.8284
164 1 10.3073 8.05957 9.56797
79 1 11.0971 7.05057 12.0082
172 1 10.2825 10.0887 4.5761
173 1 11.3406 10.855 4.98268
179 1 9.58605 10.6371 3.53115
126 1 11.218 12.2361 4.4862
175 1 9.55536 9.13278 5.304
182 1 11.5006 9.67867 8.23858
186 1 11.6575 10.8185 7.34561
185 1 9.27132 11.5564 7.67609
187 1 10.3621 10.4112 10.3611
190 1 11.0747 11.5764 10.3012
183 1 10.8597 9.45636 9.45308
191 1 9.19573 10.3489 11.1712
ITEM: TIMESTEP
5000
ITEM: NUMBER OF ATOMS
191
ITEM: BOX BOUNDS pp pp pp
-1.1318822383685491e-01 1.2113188223836847e+01
-1.1318822383685491e-01 1.2113188223836847e+01
-1.1318822383685491e-01 1.2113188223836847e+01
ITEM: ATOMS id type x y z
116 1 0.0398983 1.1925 2.40629
12 1 1.22037 0.692781 4.82627
118 1 0.275321 0.533338 3.72816
11 1 0.581493 0.952597 7.3323
32 1 1.2904 0.906241 8.55219
31 1 2.66721 0.912522 8.84704
17 1 2.6168 2.15017 6.08405
13 1 1.32729 1.38384 6.02405
28 1 0.423467 0.951053 9.71608
29 1 0.0432456 2.27265 10.1719
30 1 1.16257 2.72523 10.8255
38 1 2.45688 2.02517 10.7961
36 1 2.65644 0.857046 11.5419
45 1 1.07731 5.52113 1.91
6 1 1.00045 3.71911 0.710932
7 1 0.232101 4.56515 1.42366
4 1 2.08119 3.06627 1.30613
53 1 0.194624 5.96657 4.22506
14 1 2.34805 3.59888 6.65857
22 1 1.04971 3.87708 7.02353
63 1 0.79915 4.75066 8.32848
34 1 1.13928 3.87327 11.5588
64 1 1.36382 4.98153 10.7534
66 1 1.7374 4.69047 9.46579
39 1 -0.0390187 8.64816 1.1598
42 1 1.21622 8.14867 1.71271
43 1 2.18352 7.5856 0.824881
54 1 2.4522 6.37463 5.38937
50 1 2.04576 8.49058 3.85845
40 1 0.996422 6.3906 3.12053
60 1 2.6327 7.75589 4.88824
52 1 1.05721 6.0618 5.45643
41 1 1.26829 7.69295 3.03445
108 1 1.26881 8.39079 8.73748
67 1 1.81709 7.03496 8.35254
109 1 0.153798 8.76967 7.96833
59 1 0.43068 6.69639 6.5736
71 1 0.873903 6.14116 7.82249
152 1 -0.0865118 7.99063 6.80343
75 1 1.14299 8.73255 11.2859
76 1 1.57699 7.45196 11.6506
77 1 1.54005 6.17383 11.1849
107 1 1.66581 9.14229 10.0199
89 1 1.32582 10.5165 0.8546
84 1 1.08123 10.4922 2.46456
80 1 0.572957 9.5117 0.0740389
85 1 2.69626 11.052 0.48423
96 1 1.2731 10.8573 5.77289
21 1 2.02436 11.6249 4.91215
83 1 2.1145 9.94181 3.2972
176 1 -0.134281 10.6505 6.05841
103 1 2.85609 11.6952 11.4443
99 1 3.00045 9.67224 10.0346
1 1 4.27007 1.92724 1.58041
3 1 5.41732 1.64375 2.14229
16 1 4.29617 0.188977 5.18338
10 1 5.11503 2.10923 6.2843
24 1 5.56572 2.60785 8.68267
26 1 5.92325 0.243149 8.49471
9 1 5.76908 2.80198 7.29081
18 1 3.89575 1.41157 5.89833
25 1 3.15673 2.0618 9.58132
48 1 5.40551 5.43271 0.286592
44 1 5.65346 5.82759 2.76755
46 1 4.98838 5.26056 1.63612
8 1 3.95795 4.2125 1.75954
5 1 3.43505 2.97942 1.43496
51 1 3.53963 5.56579 5.82659
56 1 5.05391 5.78807 5.6194
57 1 3.19445 4.61835 6.90549
70 1 3.45316 5.17901 8.18189
78 1 5.06693 4.35491 11.6266
68 1 4.10902 4.40417 9.06302
69 1 4.65712 4.9048 10.3202
27 1 4.13063 2.98682 9.04837
37 1 5.6268 3.09975 11.7559
47 1 4.62654 8.22295 2.67813
82 1 4.52719 8.53148 1.31881
90 1 3.4942 7.94143 0.73961
55 1 5.8964 7.09389 5.86066
49 1 5.58566 7.19778 3.05582
73 1 4.11511 7.55571 8.98663
62 1 5.36779 7.32265 8.25754
61 1 5.54213 7.9579 6.9627
65 1 3.1399 6.56876 8.7522
102 1 4.15735 8.89921 9.57662
72 1 5.33523 6.17887 10.2689
88 1 3.46984 11.1156 1.65147
91 1 5.38299 9.51281 0.784417
94 1 5.60624 11.7479 5.36739
97 1 5.66304 10.1768 5.36377
87 1 3.45938 10.6307 3.09484
92 1 4.43055 9.42868 3.45429
20 1 3.31934 11.6218 4.37403
95 1 5.71789 9.76 3.99036
93 1 5.40557 9.45646 6.76503
100 1 5.0887 10.3709 7.8726
106 1 4.74208 11.6673 8.17507
33 1 3.49321 11.923 9.00981
86 1 5.6384 10.0087 11.7623
98 1 3.23178 11.0741 10.214
101 1 5.32337 9.55425 9.07319
114 1 8.74847 2.0622 0.440415
15 1 6.93337 0.1369 5.18217
19 1 6.93679 1.07414 4.1815
2 1 6.36799 1.44569 3.07333
134 1 6.83762 2.73491 11.0202
137 1 6.88543 0.489752 9.31463
129 1 8.29288 0.232213 9.21319
130 1 8.16926 2.82327 11.536
147 1 7.66784 4.54539 2.29392
139 1 8.79648 5.29024 2.03715
156 1 6.99341 4.55727 4.62496
150 1 8.32229 4.14385 4.80509
141 1 6.67854 4.96252 3.19676
58 1 5.9924 4.61292 5.66023
151 1 8.62693 5.2154 7.19931
166 1 7.54832 4.39127 7.63171
23 1 6.47771 3.928 6.88044
165 1 8.52215 4.51341 9.95991
136 1 8.9281 3.97739 11.164
35 1 6.62996 2.96553 9.59171
167 1 7.56128 3.95011 9.03731
171 1 7.43882 8.25812 1.37218
142 1 7.89507 7.53778 2.54949
140 1 7.74084 8.25427 -0.0409258
143 1 8.96246 6.56971 2.80643
144 1 6.95394 7.65505 3.59422
148 1 7.14225 7.29604 4.97363
154 1 8.3356 7.06346 5.55373
153 1 8.41589 6.55587 6.85651
162 1 8.6673 7.47285 7.84434
184 1 8.45781 8.83352 7.77473
145 1 7.36517 7.14147 11.2816
160 1 7.4493 7.08638 9.81808
159 1 8.68116 6.7561 9.17315
74 1 6.20633 6.65122 9.20619
81 1 6.08645 6.47949 11.6964
169 1 6.64106 9.41637 1.70533
174 1 8.16421 10.0139 3.26931
170 1 6.82475 9.79662 3.09611
121 1 8.20053 11.7255 5.33651
123 1 9.01291 11.9669 4.19984
177 1 8.8153 9.51163 6.47802
178 1 8.64986 10.9721 6.43019
180 1 7.94187 9.76868 8.72874
181 1 8.5713 11.1038 8.66996
104 1 6.63842 9.7142 9.56617
110 1 6.75231 10.0733 10.928
188 1 7.96478 9.56564 11.5399
115 1 10.941 1.75571 2.07649
112 1 10.0074 1.74266 1.07291
111 1 10.3812 1.91894 3.39122
120 1 10.1432 0.679627 4.18605
126 1 11.3712 -0.12105 4.10257
127 1 10.1463 0.463464 7.55773
189 1 11.5668 0.218836 7.33894
131 1 9.3557 1.23142 8.53753
135 1 10.1888 2.49787 9.12637
105 1 11.8798 -0.00375726 10.3092
119 1 9.85236 4.95744 1.21912
117 1 11.0451 4.5814 1.89036
113 1 9.68158 4.74628 -0.125178
146 1 10.8845 4.42123 3.3763
124 1 9.75257 3.70179 5.1021
128 1 10.3959 3.31829 3.92421
157 1 10.9939 5.78595 3.98114
161 1 10.4557 5.12192 8.48048
155 1 10.0299 4.93675 7.1316
122 1 11.8777 3.59645 6.56957
125 1 10.5352 3.96703 6.27518
133 1 11.7002 4.49522 8.85204
163 1 9.36514 5.54384 9.41986
132 1 11.4351 3.07537 9.45273
168 1 11.0448 8.11249 0.972621
79 1 10.539 7.49697 -0.0311024
149 1 9.4981 7.6414 4.87933
138 1 9.91826 6.73632 3.78086
175 1 9.73888 8.90592 5.47671
158 1 10.4303 7.39733 10.8486
164 1 10.7499 7.99198 9.70285
172 1 10.3102 9.92417 4.49105
173 1 11.4092 10.7522 4.89698
179 1 9.33004 10.6045 3.7
182 1 11.6107 9.89754 8.23607
186 1 11.7354 11.0144 7.35281
185 1 9.30831 11.4377 7.51551
187 1 10.3178 10.2685 10.3094
190 1 11.1851 11.3578 10.8626
183 1 10.8147 9.42661 9.34685
191 1 9.14787 9.97308 11.1301
ITEM: TIMESTEP
6000
ITEM: NUMBER OF ATOMS
191
ITEM: BOX BOUNDS pp pp pp
-1.5182613066126532e-01 1.2151826130661270e+01
-1.5182613066126532e-01 1.2151826130661270e+01
-1.5182613066126532e-01 1.2151826130661270e+01
ITEM: ATOMS id type x y z
116 1 -0.138884 1.00659 2.36886
12 1 1.30529 0.518583 4.78273
118 1 0.213838 0.653491 3.87997
13 1 1.24347 1.25559 5.97888
17 1 2.37034 2.1314 5.90025
11 1 0.463423 0.859081 7.14449
32 1 1.1517 0.711881 8.45204
31 1 2.64992 0.744638 8.64028
28 1 0.346809 0.924779 9.52152
29 1 0.198686 2.22125 9.96387
30 1 1.26734 2.5634 10.7126
38 1 2.43962 1.74583 10.6849
36 1 2.69837 0.656646 11.4271
45 1 1.05171 5.31053 2.25256
6 1 1.1256 3.54422 0.655418
7 1 0.276499 4.34686 1.43928
4 1 2.14323 2.9385 1.33554