ITEM: TIMESTEP
1000
ITEM: NUMBER OF ATOMS
191
ITEM: BOX BOUNDS pp pp pp
0.0000000000000000e+00 1.2000000000000000e+01
0.0000000000000000e+00 1.2000000000000000e+01
0.0000000000000000e+00 1.2000000000000000e+01
ITEM: ATOMS id type x y z
12 1 1.20509 0.848646 4.8824
1 1 2.45416 2.21262 3.44646
118 1 0.0568909 0.931156 4.21542
31 1 2.7963 1.20012 8.59879
32 1 1.33362 1.11411 8.47168
11 1 0.524598 1.20419 7.34151
17 1 2.71238 2.40746 6.16634
13 1 1.38231 1.67759 6.10224
28 1 0.600435 1.06936 9.68613
29 1 0.380463 2.49177 10.0643
30 1 1.54051 2.88833 10.6729
38 1 2.76966 2.1392 10.5977
4 1 2.18611 3.42645 1.49308
6 1 1.37529 4.1638 0.681185
7 1 0.316389 4.7799 1.23673
5 1 2.72351 3.38718 2.80547
53 1 0.358511 5.83537 4.1516
14 1 2.48962 3.77126 6.47623
22 1 1.04066 4.12647 6.92577
63 1 0.861504 4.89394 8.19573
34 1 1.60511 4.1806 11.3394
64 1 1.84804 5.17285 10.4568
66 1 1.97643 4.87993 9.13738
39 1 0.181589 8.50532 0.712513
43 1 2.65505 8.15867 0.868042
42 1 1.41328 7.99508 1.5577
45 1 0.410238 6.0196 1.6437
40 1 0.607622 6.50916 2.98891
41 1 1.37971 7.70322 2.91852
54 1 2.3679 6.52629 5.21292
50 1 2.14686 8.46843 3.69532
52 1 1.04645 6.21113 5.25484
60 1 2.43505 7.90596 4.88676
59 1 0.319578 6.54721 6.41356
67 1 1.82448 7.31926 8.10585
71 1 0.824954 6.39916 7.65354
108 1 1.50378 8.72625 8.5489
75 1 1.63839 8.73584 10.9
76 1 2.39605 7.75422 11.4558
77 1 2.36185 6.3648 11.1126
89 1 1.68557 10.4378 0.778156
84 1 1.26087 10.293 2.26055
96 1 1.39937 10.5244 5.80047
21 1 1.92503 11.6793 5.0829
83 1 1.97272 9.86486 3.45811
109 1 0.460584 9.13924 7.92927
107 1 1.96788 9.23301 9.68906
80 1 0.964113 9.47731 11.8748
3 1 3.46182 1.23958 3.5408
16 1 4.12741 0.164967 5.50129
2 1 4.94593 1.47411 3.18049
9 1 5.79569 2.82726 7.153
24 1 5.70492 2.43076 8.65892
26 1 5.83625 0.933983 8.58776
10 1 5.33926 2.06308 6.16372
18 1 3.95423 1.52412 6.0336
25 1 3.47206 2.22466 9.36298
36 1 3.1563 1.05003 11.3995
48 1 4.33373 4.65548 0.709691
44 1 5.99016 5.22315 2.44868
46 1 4.83482 4.57961 2.03733
8 1 3.91788 4.06314 2.96916
58 1 5.89245 4.77236 5.62939
56 1 5.05263 5.94244 5.47293
51 1 3.61934 5.79543 5.77172
70 1 3.40603 5.25056 8.37877
57 1 3.29911 4.88631 6.83742
78 1 5.12797 4.29346 11.5245
68 1 4.40579 4.42649 9.42396
69 1 5.059 5.21573 10.3426
27 1 4.47806 3.0505 9.22505
47 1 5.19546 7.94796 2.43487
82 1 4.90455 8.78538 1.39948
92 1 5.0144 8.61295 3.70179
55 1 5.95341 7.18716 5.53858
73 1 4.19161 7.74413 8.55678
62 1 5.53684 7.49362 7.95057
65 1 3.19209 6.8109 8.4114
61 1 5.63671 8.06901 6.60218
72 1 5.55993 6.5066 10.3029
81 1 5.54413 7.76087 11.0694
88 1 3.49987 11.0428 2.1632
85 1 3.16455 10.4098 1.00517
91 1 5.91697 9.71594 1.04399
90 1 3.67653 9.11918 1.0001
94 1 5.51007 11.7138 5.47563
97 1 5.54044 10.2859 5.25334
87 1 3.11333 10.7168 3.43176
20 1 3.18504 11.8843 4.2963
95 1 5.89847 9.73487 4.04418
93 1 5.64775 9.60237 6.45837
100 1 5.39615 10.4731 7.59658
101 1 5.51693 9.71445 8.84227
106 1 4.93343 11.8978 7.96221
33 1 3.59975 11.9983 8.55921
98 1 3.50555 11.1841 9.68144
103 1 3.22428 11.7935 10.9441
99 1 3.27887 9.79207 9.59418
102 1 4.32834 9.07969 9.01661
114 1 8.60925 1.0636 0.341457
15 1 6.28686 1.03729 5.36838
19 1 6.14573 1.31933 3.9212
121 1 7.76238 0.614062 5.91285
128 1 8.88866 2.97665 3.70562
129 1 8.35478 0.18746 9.37563
130 1 8.26103 2.13424 11.4211
137 1 7.02759 0.504277 9.32774
134 1 6.96563 2.54662 10.8961
35 1 6.87822 2.8466 9.43909
147 1 8.12484 3.78741 2.81579
139 1 8.95702 4.71955 2.11283
141 1 6.86754 4.534 3.29409
150 1 8.14886 4.52859 5.47536
156 1 6.87198 4.6036 4.71775
151 1 8.27125 5.07366 6.80782
166 1 7.22697 4.60737 7.64401
23 1 6.11789 4.13615 6.99852
167 1 7.57641 4.01855 8.90824
165 1 8.33637 4.89564 9.7276
37 1 6.09022 3.28999 11.648
49 1 6.32647 6.66491 2.15676
140 1 7.99375 7.68454 0.383597
142 1 8.58072 7.38481 2.5869
145 1 6.96274 6.67636 0.681379
171 1 8.11027 8.45739 1.63405
144 1 7.31434 7.04926 3.2988
148 1 7.18411 7.1601 4.73754
154 1 8.35935 7.1502 5.53352
153 1 8.1698 6.55922 6.73473
162 1 8.58165 7.49694 7.74916
184 1 8.14193 8.93666 7.51019
188 1 7.99517 8.26872 11.0671
74 1 6.48352 6.90777 9.14608
160 1 7.81743 7.2395 9.89896
169 1 7.09657 9.53003 1.87342
174 1 7.97704 10.9841 3.56656
170 1 6.93637 10.1165 3.21665
177 1 8.34338 9.55504 6.12299
178 1 8.10362 11.1346 6.34415
180 1 7.89147 9.70405 8.60484
181 1 8.60636 10.9521 8.71045
185 1 8.91145 11.4014 7.40967
104 1 6.73251 9.58153 9.41521
110 1 6.49943 9.08283 10.8292
86 1 6.07477 10.1283 11.7812
115 1 10.3233 1.23323 2.44296
116 1 11.6482 0.993539 2.82226
112 1 9.70433 1.22206 1.2498
111 1 9.4857 1.66562 3.53701
126 1 10.9251 0.207048 4.75638
120 1 9.76984 1.11383 4.82804
123 1 9.07273 1.35593 5.95414
127 1 9.85358 0.871564 7.35898
189 1 11.3665 0.497339 7.24559
131 1 9.26943 1.27343 8.8753
135 1 9.92736 2.45712 9.72437
136 1 9.31994 2.91918 10.9834
105 1 11.8296 0.0101488 10.1355
119 1 10.0568 4.12402 1.1601
117 1 11.2913 4.10232 1.87838
157 1 11.3328 4.9189 4.17809
124 1 9.18021 3.70881 5.01453
146 1 11.3855 3.97031 3.30822
138 1 10.2186 5.74187 3.89366
161 1 10.2777 4.94223 8.31128
155 1 9.72347 4.77316 7.05922
133 1 11.4486 4.36918 8.8939
122 1 11.7791 3.7662 6.22739
125 1 10.4313 4.01175 6.05778
163 1 9.44619 5.61201 9.18789
113 1 9.86272 3.82653 11.855
132 1 11.2015 3.12199 9.46298
143 1 9.41135 6.11047 2.82495
168 1 11.139 7.60473 0.563201
149 1 9.69535 7.6531 5.41856
152 1 10.827 7.13612 6.19421
159 1 9.168 7.09184 8.9772
158 1 11.2905 7.02504 10.2119
164 1 10.4181 7.84684 9.49228
79 1 11.2299 6.74242 11.5198
172 1 10.0074 10.0659 4.56232
173 1 11.0291 10.7553 5.07982
175 1 9.42791 9.05859 5.30838
179 1 9.28849 10.6904 3.58403
182 1 11.2861 9.8532 8.11419
186 1 11.4828 11.032 7.29613
176 1 11.9937 10.5963 6.03074
187 1 10.2157 9.88624 10.5578
190 1 10.9942 11.1135 10.7664
183 1 10.5117 9.3033 9.2034
191 1 9.03 9.33326 11.045
ITEM: TIMESTEP
2000
ITEM: NUMBER OF ATOMS
191
ITEM: BOX BOUNDS pp pp pp
-1.1209817657793777e-01 1.2112098176577913e+01
-1.1209817657793777e-01 1.2112098176577913e+01
-1.1209817657793777e-01 1.2112098176577913e+01
ITEM: ATOMS id type x y z
4 1 1.74538 2.72029 1.5127
5 1 2.93278 2.68692 2.33194
12 1 1.25807 0.66353 4.78254
118 1 0.169984 0.353295 3.9408
31 1 2.76415 0.949813 8.7843
32 1 1.36467 0.73273 8.59476
11 1 0.688115 0.887084 7.27554
17 1 2.56055 2.14522 6.08442
13 1 1.35013 1.35822 6.10109
28 1 0.30626 0.797305 9.60688
29 1 0.271279 2.29338 10.2531
30 1 1.3795 2.64255 11.0558
38 1 2.57565 1.93519 10.7491
7 1 0.434471 4.81263 1.47873
6 1 0.955529 3.81246 0.807037
45 1 1.17967 5.77357 2.15862
14 1 2.26128 3.51471 6.58864
22 1 0.869223 3.85427 7.02048
63 1 0.725823 4.63482 8.29982
34 1 1.31564 3.96162 11.701
64 1 1.83311 5.06542 10.7119
66 1 1.91447 4.70202 9.28342
39 1 0.105772 8.71204 0.874086
43 1 2.35132 8.06694 0.766291
42 1 1.26878 8.19693 1.68802
41 1 1.44687 7.79224 2.92286
54 1 2.40967 6.54876 5.45815
50 1 2.20675 8.68683 3.88437
52 1 0.941074 6.35032 5.5811
40 1 1.00396 6.57423 3.18743
60 1 2.74643 7.78364 4.97074
53 1 0.234271 6.32116 4.30737
108 1 1.42585 8.47682 8.57444
67 1 1.72524 7.03174 8.41798
71 1 0.696854 6.17365 8.00122
59 1 0.123325 6.60874 6.74404
77 1 2.04725 6.34922 11.383
76 1 1.9095 7.70605 11.6772
75 1 1.18602 8.81688 11.0604
107 1 1.79634 9.03005 9.81625
89 1 1.55794 10.6575 0.781662
84 1 1.419 10.5991 2.17935
80 1 0.704225 9.61833 -0.10552
83 1 2.25024 10.0283 3.25121
21 1 1.9214 11.5379 5.0676
96 1 1.17173 10.4609 5.55355
109 1 0.304412 9.16854 8.12964
3 1 5.17067 1.33815 1.90971
1 1 3.9127 1.77715 2.02976
16 1 4.14889 0.126318 5.37144
18 1 3.9145 1.46632 5.78961
26 1 5.79133 0.823656 8.8117
24 1 5.52139 2.2826 8.53722
10 1 5.02356 2.05951 6.29357
9 1 5.71446 2.88027 7.2043
25 1 3.19436 2.13246 9.52674
36 1 2.98004 0.841296 11.6473
48 1 4.19344 4.83275 0.679066
44 1 5.52592 5.19879 2.72631
46 1 4.40076 4.76027 2.0562
8 1 3.44764 3.88512 2.75463
56 1 5.03969 5.69273 5.67606
51 1 3.51979 5.74651 5.90412
70 1 3.16779 5.21237 8.48056
57 1 3.1638 4.64195 6.89945
78 1 4.82509 4.61381 11.6143
68 1 4.21965 4.44055 9.30067
69 1 4.77919 5.22409 10.295
37 1 5.69446 3.53274 11.609
27 1 4.29979 2.99019 9.20026
47 1 5.00488 7.78215 2.28544
82 1 4.70387 8.68862 1.27834
90 1 3.40006 9.01238 0.960031
49 1 5.93498 6.61888 2.2226
55 1 5.73946 7.13342 5.55406
92 1 4.92315 8.38156 3.57353
73 1 4.03087 7.69787 8.66011
62 1 5.52903 7.44693 8.07279
61 1 5.76183 8.15081 6.75523
65 1 3.11735 6.67454 8.56777
72 1 5.39077 6.435 10.1103
81 1 5.44333 7.63961 10.8725
102 1 4.22568 9.02983 9.2754
88 1 3.54661 11.3712 1.80454
91 1 5.74395 9.56373 1.03472
85 1 3.06788 10.7066 0.507799
94 1 5.54409 11.7998 5.29803
97 1 5.57569 10.2758 5.1947
20 1 3.22458 11.5992 4.54874
87 1 3.28881 11.0386 3.322
95 1 5.54108 9.58106 4.05087
93 1 5.42587 9.64922 6.53662
100 1 5.29333 10.6862 7.71234
101 1 5.36751 9.86092 8.91607
106 1 4.82923 12.087 8.24819
98 1 3.49571 11.0355 10.1589
103 1 3.25243 11.5659 11.4814
99 1 3.14126 9.63008 9.98207
86 1 5.81748 10.0152 11.8554
33 1 3.56039 12.0394 9.0817
114 1 8.82804 2.0093 0.454143
2 1 6.30929 1.34035 2.49856
15 1 6.82738 0.236009 4.868
19 1 6.8949 0.705904 3.4948
121 1 7.99831 0.0395649 5.65697
123 1 9.03558 1.02703 5.42516
129 1 8.27766 0.409368 9.46072
130 1 8.19388 2.56211 11.5288
137 1 6.79121 0.383782 9.83635
134 1 6.75549 2.72329 11.0258
147 1 7.74755 4.63397 2.37379
139 1 8.90446 5.42608 2.01117
141 1 6.70671 4.61049 3.30157
150 1 8.23728 3.74178 4.91085
156 1 6.88762 4.36264 4.7426
58 1 6.03093 4.59377 5.74257
151 1 8.64179 5.26658 7.05998
166 1 7.53245 4.54594 7.70573
23 1 6.27483 4.07819 7.05536
167 1 7.58034 3.93673 9.03855
165 1 8.66194 4.3985 9.82282
35 1 6.72636 2.95344 9.48302
171 1 7.99351 8.41677 1.44933
140 1 7.53796 7.63988 0.268412
142 1 8.24614 7.62935 2.60733
145 1 6.64663 6.5678 0.694726
144 1 7.02574 7.0559 3.28349
148 1 7.00622 6.95311 4.79218
154 1 8.23846 6.94329 5.4509
153 1 8.42995 6.56325 6.69204
162 1 8.57297 7.5598 7.66382
184 1 8.3808 8.98143 7.59988
188 1 7.81133 8.32486 11.1744
160 1 7.62599 7.23627 9.72575
74 1 6.34145 6.79542 9.10634
110 1 6.5078 8.94596 10.9077
169 1 6.95518 9.30781 1.75029
170 1 6.89315 9.90118 3.01097
174 1 7.96232 10.7462 3.39062
177 1 8.9068 9.71457 6.30653
178 1 8.84223 11.1551 6.363
180 1 7.85053 9.83563 8.84282
181 1 8.46361 11.2185 8.72989
104 1 6.6987 9.70522 9.63654
191 1 8.93707 9.40383 10.8662
115 1 10.8149 1.41835 2.14104
112 1 9.85872 1.41351 1.07219
116 1 12.0752 0.857456 2.63665
111 1 10.2826 2.10589 3.36562
126 1 11.1615 0.0429441 4.5799
120 1 10.2179 1.12416 4.54228
127 1 10.2209 0.634672 7.89461
189 1 11.548 0.184422 7.37461
131 1 9.45088 1.43438 8.96147
135 1 10.0861 2.44222 9.90867
119 1 10.01 4.81917 1.12764
117 1 11.258 4.75448 1.76373
157 1 11.1508 5.79842 3.94441
124 1 9.70361 3.71955 5.08224
128 1 10.5079 3.29915 3.92177
146 1 11.0627 4.43025 3.1947
161 1 10.4022 4.99598 8.5101
155 1 9.94942 4.84846 7.23419
125 1 10.5667 4.16769 6.15263
122 1 11.9228 3.89982 6.27504
133 1 11.6076 4.34515 8.90711
163 1 9.36787 5.45842 9.21056
136 1 9.2634 3.3366 10.7928
113 1 9.74254 4.32423 11.9707
132 1 11.4273 3.03054 9.59956
143 1 9.16108 6.5144 2.84059
168 1 11.1529 7.83243 0.721592
149 1 9.38587 7.55946 4.89207
138 1 10.0571 6.80579 3.88624
152 1 11.3739 7.57675 6.72011
159 1 9.13135 7.10784 9.02087
158 1 11.1788 7.5155 10.4642
164 1 10.4712 7.91087 9.34621
79 1 10.7558 7.52011 11.7107
172 1 10.1555 10.033 4.3082
173 1 11.1133 10.893 4.77058
179 1 9.31091 10.7301 3.40839
176 1 11.9835 10.5447 5.84306
175 1 9.54975 9.06439 5.12671
182 1 11.4014 9.98581 8.16546
186 1 11.5541 11.0064 7.11895
185 1 9.41712 11.5808 7.69401
187 1 10.0392 10.0317 10.3328
190 1 10.6913 11.2153 10.5298
105 1 11.6569 12.0405 10.0446
183 1 10.5829 9.38664 9.17192
ITEM: TIMESTEP
3000
ITEM: NUMBER OF ATOMS
191
ITEM: BOX BOUNDS pp pp pp
-2.0976725081137310e-01 1.2209767250811396e+01
-2.0976725081137310e-01 1.2209767250811396e+01
-2.0976725081137310e-01 1.2209767250811396e+01
ITEM: ATOMS id type x y z
12 1 0.919674 0.737055 4.81409
118 1 -0.207363 0.65355 3.99324
13 1 1.20323 1.22207 6.2231
32 1 1.10734 0.927145 8.68291
11 1 0.336015 0.749033 7.38517
31 1 2.51648 0.888292 8.9263
17 1 2.47259 2.08326 6.10553
28 1 0.183851 1.02435 9.74539
29 1 0.0715569 2.19211 10.3483
30 1 1.0676 2.73967 11.1805
38 1 2.41363 1.77463 11.1567
7 1 0.269221 4.6792 1.35733
6 1 1.15508 3.79703 0.859165
45 1 0.800566 5.87242 1.9147
4 1 1.876 2.82187 1.45528
14 1 2.31696 3.55715 6.58906
22 1 0.875843 3.92864 7.16703
63 1 0.630024 4.87326 8.35755
34 1 1.2098 3.97259 11.828
64 1 1.54443 5.09257 11.0452
66 1 1.3986 4.97896 9.60482
39 1 0.187095 8.57353 0.647137
43 1 2.43859 8.25715 0.761494
42 1 1.20064 8.25027 1.41312
54 1 2.52281 6.5996 5.1457
50 1 2.02052 8.81821 3.75365
52 1 1.04513 6.37725 5.29883
53 1 0.186916 6.36925 4.243
40 1 0.864608 6.69902 3.01638
60 1 2.74499 8.01667 4.62072
41 1 1.19464 8.04914 2.90357
108 1 1.50299 8.36458 8.81568
67 1 1.86384 7.08083 8.41258
109 1 0.480831 8.92707 7.95406
59 1 0.573684 6.73805 6.55851
71 1 0.844112 6.22213 7.80322
152 1 0.398759 8.18017 6.85564
75 1 1.5724 8.78564 11.2275
76 1 2.21142 7.6564 11.9005
77 1 2.1472 6.25795 11.5723
107 1 1.93348 9.17299 9.92529
89 1 1.45097 10.6281 0.647329
84 1 1.23345 10.5794 2.07556
83 1 1.88265 10.1678 3.27157
21 1 1.55868 11.7756 4.79584
96 1 0.700537 10.7517 5.22424
80 1 0.827765 9.72193 12.1362
3 1 4.24021 0.291549 1.70983
1 1 3.56904 1.34594 0.98108
2 1 5.28614 0.430189 2.76199
5 1 3.07187 2.47773 1.70548
16 1 4.01984 -0.0953147 5.45206
18 1 3.75315 1.35478 6.07935
19 1 6.21932 0.714291 3.79216
10 1 4.86981 2.0682 6.33132
24 1 5.5774 2.3483 8.69176
26 1 5.74428 0.693797 8.64704
9 1 5.70766 2.93703 7.17559
33 1 3.49445 -0.267607 8.99982
25 1 3.04387 1.95062 9.68737
36 1 3.12549 0.876241 12.0009
37 1 5.41779 2.80092 11.5969
27 1 4.20116 2.76846 9.31067
48 1 5.01801 5.04647 0.137579
44 1 5.45368 5.42134 2.46803
46 1 4.65559 4.79339 1.51065
8 1 4.1683 3.47886 1.86662
56 1 5.08686 5.76206 5.62795
51 1 3.52999 5.59442 5.75514
58 1 5.90559 4.68125 5.50743
70 1 3.54887 5.18447 8.21418
57 1 3.13495 4.78875 6.8892
78 1 4.86562 4.04123 11.5219
69 1 5.00637 4.81635 10.1619
72 1 5.95926 5.90819 10.4298
68 1 4.03955 4.20126 9.14084
47 1 4.98365 7.94263 2.44966
82 1 4.62053 8.7679 1.24912
55 1 5.92475 7.12254 5.8354
92 1 4.77749 8.76189 3.67518
49 1 5.80881 6.70459 2.61989
65 1 3.31604 6.61847 8.5693
62 1 5.85905 7.42615 8.46492
61 1 5.8049 8.00501 7.04428
73 1 4.27419 7.59685 8.97457
102 1 4.41738 9.00423 9.56421
88 1 3.6462 11.3904 1.85408
91 1 5.72068 9.65502 0.858862
85 1 3.18024 10.6399 0.528754
90 1 3.41216 9.1768 0.786855
94 1 5.29567 11.7854 5.42344
97 1 5.43765 10.4122 5.58101
95 1 5.64405 9.79995 4.05693
87 1 3.08889 11.0518 3.22466
20 1 3.06459 11.7225 4.5387
93 1 5.26874 9.54709 6.8601
100 1 5.07595 10.5694 7.96841
106 1 4.82565 11.9716 8.28276
98 1 3.28406 11.2879 10.4124
103 1 3.3369 11.7642 11.764
99 1 3.22443 9.81871 9.9173
101 1 5.5997 9.80548 9.12197
114 1 8.94442 1.63986 0.0873855
15 1 6.44191 -0.0276211 4.99778
121 1 7.75219 -0.199952 5.24346
123 1 8.53021 0.796935 4.80016
129 1 8.33377 0.123093 9.2543
130 1 8.06339 2.35865 11.683
137 1 7.02715 0.491567 9.26758
134 1 6.84625 2.5075 11.0022
147 1 7.89091 4.54555 2.15226
139 1 9.146 5.27866 1.9471
156 1 6.83853 4.29894 4.37889
150 1 8.21484 4.22785 4.91715
141 1 6.74596 4.54309 2.95762
151 1 8.51507 5.28498 7.05022
166 1 7.34997 4.74924 7.51969
23 1 6.26738 4.21949 6.76473
165 1 8.53169 4.5594 9.91747
35 1 6.83778 2.81577 9.56086
81 1 5.99004 6.04744 11.7929
167 1 7.58074 3.96241 9.03673
136 1 9.10016 3.60456 10.9514
171 1 7.69433 8.27908 1.51002
140 1 7.86373 7.84739 0.126368
142 1 7.96741 7.37019 2.61679
145 1 7.08909 6.65782 0.0959527
143 1 9.17386 6.51541 2.6229
144 1 6.8723 6.9421 3.50346
148 1 6.94203 7.06512 4.85584
154 1 8.20873 7.18393 5.44185
153 1 8.34663 6.75342 6.86574
162 1 8.47467 7.67374 7.87492
188 1 8.0911 8.63885 11.354
160 1 7.98164 7.53646 10.0144
74 1 6.64668 6.87423 9.6158
169 1 6.68198 9.3258 1.92698
174 1 7.93308 10.6307 3.32879
170 1 6.71608 9.97402 3.11821
177 1 8.6502 9.83591 6.21455
178 1 8.38595 11.3975 6.23175
180 1 8.1102 10.0025 8.74336
181 1 8.61943 11.3112 8.56658
184 1 8.34728 9.05605 7.51441
104 1 6.86541 9.94506 9.66961
110 1 7.06483 9.7602 11.0392
86 1 6.13464 10.1028 12.0471
115 1 10.689 1.70199 2.06008
112 1 10.2211 1.49051 0.820503
116 1 12.2065 0.932985 2.55135
111 1 10.2331 2.12824 3.35489
126 1 11.012 0.137419 4.46402
120 1 9.87021 1.13867 4.25725
127 1 10.286 0.357295 8.01786
189 1 11.569 -0.0597423 7.60401
135 1 9.97423 2.41023 9.93936
131 1 9.51125 1.11078 9.0835
105 1 11.8655 -0.153865 10.2172
119 1 10.0956 4.68353 1.18033
117 1 11.3954 4.56357 1.83965
113 1 9.64471 4.38143 -0.117416
146 1 11.2195 4.61346 3.35672
124 1 9.68146 3.80175 5.09678
128 1 10.4242 3.57301 3.98173
157 1 11.2423 5.91178 4.06182
161 1 10.4181 4.98681 8.56439
155 1 9.77753 4.69113 7.30892
125 1 10.5844 4.15601 6.25391
122 1 11.8108 3.70107 6.63583
133 1 11.6125 4.25372 9.0295
163 1 9.44474 5.58381 9.34183
132 1 11.4176 3.01127 9.79075
168 1 11.4462 8.08375 0.128433
149 1 9.36575 7.90486 5.0743
138 1 9.97101 6.7052 3.88136
158 1 11.1577 7.21547 10.3542
164 1 10.3755 7.88002 9.40308
79 1 11.124 7.12929 11.7084
159 1 9.06946 7.3106 9.09761
172 1 10.0933 10.1175 4.43641
173 1 10.8229 11.146 5.01244
179 1 9.33911 10.626 3.33586
175 1 9.45249 9.27505 5.24486
176 1 11.8512 10.8077 5.85685
182 1 11.7589 9.91212 8.09717
186 1 11.6867 11.0524 7.27373
185 1 9.22892 11.7749 7.38044
187 1 10.5737 9.99282 10.4624
190 1 11.2237 11.2417 10.792
191 1 9.43968 9.44358 11.3044
183 1 10.9158 9.38469 9.26279
ITEM: TIMESTEP
4000
ITEM: NUMBER OF ATOMS
191
ITEM: BOX BOUNDS pp pp pp
-1.4509292577964761e-01 1.2145092925779684e+01
-1.4509292577964761e-01 1.2145092925779684e+01
-1.4509292577964761e-01 1.2145092925779684e+01
ITEM: ATOMS id type x y z
12 1 0.933593 0.566836 4.96482
118 1 0.000844867 0.583002 3.82854
31 1 2.91219 0.904823 8.66794
32 1 1.52333 0.784441 8.54511
11 1 0.694813 0.884922 7.37223
17 1 2.59793 2.04359 6.18921
13 1 1.35395 1.33218 6.16798
28 1 0.578495 0.876076 9.67465
29 1 0.355176 2.25726 10.1855
30 1 1.32636 2.70459 11.0671
38 1 2.54754 1.89838 11.0701
105 1 0.0274734 -0.198776 10.5057
7 1 0.28209 4.85272 1.37063
6 1 1.05874 3.88374 0.708093
45 1 1.00103 5.51965 2.23185
4 1 1.7435 3.0962 1.60302
14 1 2.2715 3.55378 6.47561
22 1 0.852821 3.79584 6.9623
63 1 0.796738 4.70743 8.24671
34 1 1.31091 3.97888 11.6797
64 1 1.66548 5.0703 10.7355
66 1 1.84161 4.69926 9.4695
39 1 -0.189428 8.63951 0.739113
43 1 2.18047 8.1534 0.73532
42 1 0.988109 8.2736 1.5323
41 1 1.1349 7.89291 2.79255
54 1 2.33767 6.61235 5.4062
50 1 1.9125 8.6541 3.70829
52 1 0.906027 6.3023 5.5462
53 1 0.145618 6.16322 4.36827
40 1 0.839093 6.5587 3.09568
60 1 2.49736 7.81772 4.74792
108 1 1.22596 8.42067 8.76707
67 1 1.64891 7.02995 8.53468
109 1 0.210733 8.99355 7.8981
59 1 0.259196 6.75068 6.67395
71 1 0.675236 6.20496 7.89647
152 1 -0.247416 8.07659 6.89861
77 1 2.03053 6.38097 11.2997
76 1 1.88619 7.71788 11.6619
75 1 1.13257 8.93229 11.0869
89 1 0.797479 10.8334 0.689805
84 1 1.35893 10.6972 1.84014
80 1 0.260116 9.74002 -0.173843
96 1 1.04382 10.5669 5.78579
21 1 1.83265 11.6093 4.97198
83 1 2.0782 10.1437 2.96557
107 1 1.71443 9.31386 9.83214
3 1 4.35804 0.358146 1.88694
1 1 3.59204 1.46951 1.22205
2 1 5.54711 0.572453 2.57656
5 1 3.17444 2.77218 1.51883
16 1 4.14714 -0.116043 5.1737
18 1 3.77623 1.18296 5.79228
10 1 4.83514 1.90054 6.49812
24 1 5.64188 2.57368 8.77183
9 1 5.65748 2.70111 7.32008
25 1 3.20909 1.89309 9.5671
36 1 3.1191 0.821617 12.0491
48 1 5.16754 5.3662 0.315173
44 1 5.46864 5.43924 2.68549
46 1 4.77903 5.14499 1.57274
8 1 4.01202 3.96701 1.62797
56 1 5.03672 5.84874 5.76963
51 1 3.5432 5.82477 5.96772
70 1 3.23646 5.21897 8.4664
57 1 3.05003 4.6982 6.83417
78 1 5.06165 4.34671 11.5927
69 1 4.97766 5.01485 10.1688
68 1 4.16566 4.40905 9.26986
27 1 4.34776 2.94547 9.27449
37 1 5.9373 3.34249 11.7074
47 1 4.74302 7.83805 2.64245
82 1 4.56623 8.52242 1.3137
55 1 5.86877 7.11093 5.79192
92 1 4.69969 8.68517 3.83233
49 1 5.70583 6.83226 2.98564
73 1 4.2023 7.63794 8.79873
62 1 5.54842 7.45363 8.1854
61 1 5.8079 8.0536 6.85364
65 1 2.98246 6.64168 8.72682
102 1 4.22439 8.93512 9.50336
72 1 5.62631 6.31134 10.444
81 1 5.94334 6.50763 11.842
88 1 3.62978 11.5 1.84356
90 1 3.29159 8.94167 0.907288
85 1 3.48996 10.6931 0.617934
91 1 5.7709 9.36636 0.99855
94 1 5.38248 11.6506 5.54206
97 1 5.63466 10.2649 5.57904
20 1 3.12302 11.659 4.33784
87 1 3.15088 11.0143 3.04754
95 1 5.67934 9.84822 4.14902
93 1 5.56067 9.50097 6.77043
100 1 5.32812 10.1894 7.94297
106 1 4.98317 11.5123 8.30885
33 1 3.68031 11.8816 8.93624
98 1 3.28818 11.0373 10.3376
103 1 3.28513 11.6825 11.6212
99 1 3.03145 9.68323 9.93441
101 1 5.51604 9.48645 9.06817
114 1 8.59259 1.74968 0.46556
123 1 8.76284 0.96898 4.93521
19 1 6.19815 0.494681 3.69615
15 1 6.4628 0.108917 4.95857
121 1 7.76832 0.063018 5.36411
26 1 6.00726 0.34272 8.79974
129 1 8.43501 0.350756 9.48343
130 1 8.12617 2.51785 11.5756
137 1 7.03496 0.565703 9.60227
134 1 6.87547 2.5939 10.9825
35 1 6.80455 2.90738 9.58671
147 1 7.75681 4.53141 2.54575
139 1 8.84798 5.322 2.04217
156 1 6.81675 4.29913 4.60381
150 1 8.03795 3.5682 5.03384
141 1 6.55313 4.56147 3.25735
58 1 6.02242 4.74289 5.69505
151 1 8.48355 5.20274 6.98887
166 1 7.39882 4.52161 7.63803
23 1 6.28086 3.98023 6.89362
165 1 8.68966 4.44938 9.79783
167 1 7.57437 4.02829 8.94675
171 1 7.92533 8.35841 1.71133
140 1 8.06283 7.98067 0.316823
142 1 8.07565 7.55546 2.83179
145 1 7.20548 6.94423 -0.198432
144 1 6.98595 7.13448 3.53286
148 1 7.01943 7.08201 4.92448
154 1 8.2616 7.14716 5.42814
153 1 8.42464 6.71687 6.73422
162 1 8.74967 7.69981 7.68162
184 1 8.40912 9.02795 7.58235
74 1 6.24499 6.86719 9.3585
160 1 7.7355 7.00542 9.69701
188 1 8.27333 9.0174 11.5966
169 1 6.8289 9.30205 1.97848
174 1 7.9385 11.0311 3.09612
170 1 6.68948 10.171 3.07793
177 1 8.71815 9.67066 6.31257
178 1 8.36545 11.3559 6.37641
180 1 7.93866 9.88832 8.77887
181 1 8.62975 11.2079 8.70663
104 1 6.73297 9.7222 9.62495
110 1 7.0266 9.67019 11.1
86 1 6.05054 10.0154 12.1399
115 1 10.9472 1.67226 2.14662
112 1 10.0531 1.64827 1.00291
116 1 12.1795 1.00747 2.44951
111 1 10.1601 2.20053 3.32459
126 1 11.0592 0.259763 4.43166
120 1 9.9128 1.13982 4.28644
127 1 10.4157 0.709411 7.86964
189 1 11.7204 0.130586 7.5914
131 1 9.70632 1.2664 9.12445
135 1 10.1529 2.58526 9.86204
119 1 9.86411 4.81896 0.98857
117 1 11.1324 4.74548 1.67184
146 1 11.0602 4.70703 3.09743
124 1 9.62872 3.6927 4.93065
128 1 10.1915 3.56475 3.71126
157 1 11.0709 5.95007 4.15851
161 1 10.5627 4.87154 8.32669
155 1 9.901 4.78812 6.93569
125 1 10.5775 4.10212 5.8655
122 1 11.9132 3.79701 6.25529
133 1 11.7366 4.22243 8.74654
163 1 9.55328 5.51274 9.16524
136 1 9.21733 3.48344 10.7832
113 1 9.82471 4.20192 11.9529
132 1 11.5526 2.88325 9.5034
168 1 11.3419 7.50511 0.347776
143 1 9.14758 6.55825 2.69599
149 1 9.39825 7.7748 4.80317
138 1 9.99271 6.78437 3.90911
159 1 9.10461 6.97296 9.06727
158 1 11.2337 7.09798 10.2945
164 1 10.3122 7.934 9.51121
79 1 11.1386 6.76827 11.5508
172 1 9.99499 10.2026 4.28843
173 1 11.0209 11.1346 4.83816
179 1 9.17519 10.7439 3.22022
176 1 11.9558 10.6934 6.01535
175 1 9.43356 9.22982 5.13157
182 1 11.5203 9.87487 8.29021
186 1 11.7692 11.0377 7.3961
185 1 9.27815 11.7171 7.50465
187 1 10.2925 10.2425 10.4939
190 1 11.2282 11.3021 10.6589
191 1 9.54493 9.64728 11.5862
183 1 10.5144 9.35253 9.33366
ITEM: TIMESTEP
5000
ITEM: NUMBER OF ATOMS
191
ITEM: BOX BOUNDS pp pp pp
-8.3743564171758517e-02 1.2083743564171764e+01
-8.3743564171758517e-02 1.2083743564171764e+01
-8.3743564171758517e-02 1.2083743564171764e+01
ITEM: ATOMS id type x y z
4 1 1.99155 2.84018 1.60548
116 1 -0.0348443 1.41162 2.57993
12 1 1.01755 0.783615 5.00757
118 1 0.0110253 0.933317 3.87549
31 1 2.7899 0.834194 8.79391
32 1 1.28859 0.852672 8.64024
11 1 0.642811 0.991792 7.31727
13 1 1.35516 1.45336 6.13329
17 1 2.5728 2.2614 6.0152
28 1 0.416505 0.895939 9.76116
29 1 0.30924 2.25935 10.203
30 1 1.56116 2.63258 10.8383
38 1 2.80991 1.93155 10.8887
7 1 0.423407 4.68798 1.34212
6 1 1.20991 3.66717 0.821162
45 1 1.09368 5.53343 2.12052
14 1 2.43387 3.65848 6.53033
22 1 1.03897 3.73712 7.19309
63 1 0.774462 4.7691 8.31032
122 1 -0.0402955 3.9468 6.15862
34 1 1.62458 3.86965 11.5633
64 1 1.74097 5.04111 10.8236
66 1 1.57979 4.67719 9.47928
42 1 1.35595 8.00951 1.36173
43 1 2.48103 8.22194 0.5326
39 1 0.119746 8.29976 0.689268
41 1 1.36536 7.82104 2.62897
54 1 2.68699 6.95261 5.17147
50 1 1.92093 8.85458 3.44355
52 1 1.04994 6.65002 5.32614
40 1 0.879232 6.59998 3.01062
53 1 0.22532 6.3448 4.17047
108 1 1.38787 8.37443 8.51382
67 1 1.76127 7.04019 8.48261
109 1 0.146436 8.79917 7.76741
59 1 0.484616 6.74665 6.59116
71 1 0.908625 6.21546 7.76333
77 1 2.06478 6.28351 11.1933
76 1 2.06472 7.5745 11.3847
75 1 1.26305 8.72447 10.7952
89 1 0.410022 10.5391 0.44757
84 1 0.855507 10.7639 1.6498
83 1 1.8091 10.2376 2.95737
96 1 0.984019 10.4514 5.38693
21 1 1.71859 11.5856 4.99696
87 1 2.91341 11.016 3.1219
80 1 0.350166 9.25552 11.716
107 1 1.84738 9.09528 9.62766
3 1 4.40322 0.398004 1.83226
1 1 3.73912 1.43523 1.02432
2 1 5.77373 0.617819 2.70591
5 1 3.29548 2.53208 1.50947
16 1 4.05319 0.136165 5.25615
18 1 3.77206 1.41074 5.89759
10 1 4.98476 1.91792 6.5048
24 1 5.56179 2.65411 8.64139
9 1 5.60291 2.95977 7.28201
25 1 3.38839 1.95823 9.56706
36 1 3.37117 0.887723 11.8744
26 1 5.81095 0.231811 9.17161
48 1 5.31462 5.32961 0.423587
44 1 5.56209 5.48739 2.7458
46 1 4.88794 4.90852 1.6116
8 1 4.19597 3.66653 1.64056
51 1 3.68126 5.82182 5.7114
70 1 3.59187 5.43407 8.07541
57 1 3.24088 4.86131 6.69629
27 1 4.17841 3.08155 9.00681
78 1 5.03844 4.27081 11.6786
69 1 4.70432 4.92804 10.397
37 1 5.68603 3.05618 11.7444
68 1 4.11076 4.49187 9.13115
47 1 4.71609 7.83946 2.67094
82 1 4.64965 8.63368 1.48602
49 1 5.65293 6.84747 2.97815
55 1 5.93428 7.2426 5.90144
92 1 4.37528 8.68879 3.78279
60 1 3.02221 8.34788 4.27003
56 1 5.21515 6.05378 5.89016
73 1 4.12748 7.72698 8.80586
62 1 5.49025 7.41336 8.39936
61 1 5.77184 8.1244 7.12612
65 1 3.15083 6.72543 8.50403
102 1 4.23383 8.99411 9.56803
72 1 5.52015 6.2808 10.536
81 1 5.97769 6.30828 11.8815
88 1 3.56361 11.4392 1.91882
91 1 5.81789 9.15089 0.944447
85 1 3.4767 10.7834 0.685218
90 1 3.4729 9.15739 0.744345
94 1 5.24389 11.5467 5.52801
97 1 5.27485 10.1338 5.51732
20 1 3.10665 11.6196 4.40496
95 1 5.39746 9.57611 4.05384
93 1 5.35311 9.45502 6.90405
100 1 5.21836 10.3305 8.09426
106 1 4.84388 11.6279 8.55926
98 1 3.21274 11.0845 10.3373
103 1 3.25292 11.6217 11.6171
101 1 5.55115 9.56023 9.21961
33 1 3.52275 11.8026 9.01782
99 1 3.12477 9.68416 9.99472
86 1 5.97556 9.69165 11.8598
114 1 8.75052 1.91852 0.489059
123 1 8.76997 0.882466 5.06652
19 1 6.59185 0.0850009 3.69847
15 1 6.53691 0.0418071 5.06285
121 1 7.90126 -0.0182026 5.56247
129 1 8.35247 0.417077 9.65324
134 1 6.81396 2.8394 10.9212
137 1 6.96371 0.512262 9.77364
130 1 8.09474 2.67426 11.6026
147 1 7.75184 4.67459 2.29367
139 1 9.00804 5.29619 1.98057
156 1 6.85665 4.42328 4.63149
150 1 8.11372 3.88417 5.01461
141 1 6.62609 4.75039 3.23023
58 1 6.0765 4.89787 5.74819
151 1 8.66159 5.28884 7.18916
166 1 7.48204 4.48991 7.70022
23 1 6.36367 4.09306 6.89805
167 1 7.56196 4.21429 9.03117
165 1 8.69529 4.45706 9.75281
35 1 6.67293 3.15922 9.53603
171 1 7.89507 8.41986 1.75881
140 1 8.10642 8.05967 0.31862
142 1 8.02396 7.47539 2.84242
145 1 7.41486 6.77992 0.100769
144 1 6.86298 7.2963 3.62358
148 1 7.00922 7.39166 4.96592
154 1 8.37555 7.14988 5.46389
153 1 8.73889 6.51989 6.5914
162 1 8.75992 7.64459 7.5987
184 1 8.51094 9.05033 7.46954
74 1 6.35898 6.6892 9.3919
160 1 7.68044 7.0971 9.63747
159 1 8.99029 6.94254 9.10412
169 1 6.82154 9.2578 1.9145
174 1 7.31489 11.0456 3.3485
170 1 6.41304 9.85155 3.12819
179 1 8.85805 10.8062 3.28239
177 1 8.81592 9.78489 6.36069
178 1 8.5612 11.2268 6.4902
180 1 7.90527 10.0085 8.72176
181 1 8.44864 11.3585 8.7874
104 1 6.8893 9.67434 9.69119
110 1 7.12278 9.69234 11.048
188 1 8.33829 9.03084 11.4932
115 1 10.8231 1.80271 2.1205
112 1 9.92372 1.66608 1.07157
111 1 10.1267 2.10779 3.30942
126 1 10.9493 0.288837 4.24435
120 1 9.81331 1.18897 4.22887
127 1 10.1577 0.693314 8.07044
189 1 11.5972 0.148214 7.42848
135 1 10.0726 2.4336 9.93404
131 1 9.55429 1.19277 9.38276
132 1 11.3425 2.90666 9.7096
119 1 9.91899 4.73931 1.1046
117 1 11.2953 4.46501 1.73209
146 1 11.0932 4.44926 3.25348
124 1 9.48767 3.5688 5.16032
128 1 10.3522 3.46216 3.95012
157 1 11.0888 5.83378 3.91002
161 1 10.5994 5 8.54841
155 1 10.0973 4.83431 7.30113
133 1 11.5561 4.22024 9.03296
125 1 10.6128 4.06413 6.25965
163 1 9.56902 5.55361 9.34436
136 1 9.14649 3.44887 10.778
113 1 9.83978 4.18454 11.8562
168 1 11.3736 7.27266 0.748805
143 1 9.16128 6.56855 2.74867
149 1 9.44746 7.87846 4.87932
138 1 10.0301 6.7392 3.86021
152 1 11.8484 7.84975 6.79996
158 1 10.6719 7.23305 10.7675
164 1 10.1288 7.87188 9.58806
79 1 10.6555 6.64318 12.009
172 1 9.80235 10.2757 4.2515
173 1 10.8786 10.9999 4.65356
175 1 9.50048 9.24711 5.2546
176 1 11.6929 10.5604 5.69572
182 1 11.4238 9.76786 8.05971
186 1 11.5421 10.9241 7.08492
185 1 9.0965 11.8621 7.62711
187 1 10.6018 10.0095 10.4499
190 1 10.8487 11.3914 10.5998
191 1 9.53419 9.66369 11.2249
183 1 10.6483 9.26939 9.20607
105 1 11.976 11.9517 10.2716
ITEM: TIMESTEP
6000
ITEM: NUMBER OF ATOMS
191
ITEM: BOX BOUNDS pp pp pp
-1.1506734856835668e-01 1.2115067348568363e+01
-1.1506734856835668e-01 1.2115067348568363e+01
-1.1506734856835668e-01 1.2115067348568363e+01
ITEM: ATOMS id type x y z
4 1 2.17573 2.83694 1.62707
12 1 0.936381 0.71372 4.76578
13 1 1.16338 1.41913 6.00414
118 1 -0.0179488 0.740778 3.80795
11 1 0.575294 0.887563 7.12604
32 1 1.41137 0.893705 8.41119
31 1 2.90397 0.808243 8.72715
17 1 2.42151 2.12248 6.10951
28 1 0.581995 1.10838 9.48887
29 1 0.505486 2.38037 10.1113
30 1 1.52293 2.57075 11.112
38 1 2.82789 1.87767 11.0048
105 1 -0.0436166 0.0490055 10.077
7 1 0.373193 4.58357 1.73976
6 1 1.15163 3.65411 1.03363
45 1 1.07215 5.64442 2.22224
14 1 2.27197 3.61721 6.46962