ITEM: TIMESTEP
1000
ITEM: NUMBER OF ATOMS
191
ITEM: BOX BOUNDS pp pp pp
0.0000000000000000e+00 1.2000000000000000e+01
0.0000000000000000e+00 1.2000000000000000e+01
0.0000000000000000e+00 1.2000000000000000e+01
ITEM: ATOMS id type x y z
12 1 1.20509 0.848646 4.8824
1 1 2.45416 2.21262 3.44646
118 1 0.0568909 0.931156 4.21542
31 1 2.7963 1.20012 8.59879
32 1 1.33362 1.11411 8.47168
11 1 0.524598 1.20419 7.34151
17 1 2.71238 2.40746 6.16634
13 1 1.38231 1.67759 6.10224
28 1 0.600435 1.06936 9.68613
29 1 0.380463 2.49177 10.0643
30 1 1.54051 2.88833 10.6729
38 1 2.76966 2.1392 10.5977
4 1 2.18611 3.42645 1.49308
6 1 1.37529 4.1638 0.681185
7 1 0.316389 4.7799 1.23673
5 1 2.72351 3.38718 2.80547
53 1 0.358511 5.83537 4.1516
14 1 2.48962 3.77126 6.47623
22 1 1.04066 4.12647 6.92577
63 1 0.861504 4.89394 8.19573
34 1 1.60511 4.1806 11.3394
64 1 1.84804 5.17285 10.4568
66 1 1.97643 4.87993 9.13738
39 1 0.181589 8.50532 0.712513
43 1 2.65505 8.15867 0.868042
42 1 1.41328 7.99508 1.5577
45 1 0.410238 6.0196 1.6437
40 1 0.607622 6.50916 2.98891
41 1 1.37971 7.70322 2.91852
54 1 2.3679 6.52629 5.21292
50 1 2.14686 8.46843 3.69532
52 1 1.04645 6.21113 5.25484
60 1 2.43505 7.90596 4.88676
59 1 0.319578 6.54721 6.41356
67 1 1.82448 7.31926 8.10585
71 1 0.824954 6.39916 7.65354
108 1 1.50378 8.72625 8.5489
75 1 1.63839 8.73584 10.9
76 1 2.39605 7.75422 11.4558
77 1 2.36185 6.3648 11.1126
89 1 1.68557 10.4378 0.778156
84 1 1.26087 10.293 2.26055
96 1 1.39937 10.5244 5.80047
21 1 1.92503 11.6793 5.0829
83 1 1.97272 9.86486 3.45811
109 1 0.460584 9.13924 7.92927
107 1 1.96788 9.23301 9.68906
80 1 0.964113 9.47731 11.8748
3 1 3.46182 1.23958 3.5408
16 1 4.12741 0.164967 5.50129
2 1 4.94593 1.47411 3.18049
9 1 5.79569 2.82726 7.153
24 1 5.70492 2.43076 8.65892
26 1 5.83625 0.933983 8.58776
10 1 5.33926 2.06308 6.16372
18 1 3.95423 1.52412 6.0336
25 1 3.47206 2.22466 9.36298
36 1 3.1563 1.05003 11.3995
48 1 4.33373 4.65548 0.709691
44 1 5.99016 5.22315 2.44868
46 1 4.83482 4.57961 2.03733
8 1 3.91788 4.06314 2.96916
58 1 5.89245 4.77236 5.62939
56 1 5.05263 5.94244 5.47293
51 1 3.61934 5.79543 5.77172
70 1 3.40603 5.25056 8.37877
57 1 3.29911 4.88631 6.83742
78 1 5.12797 4.29346 11.5245
68 1 4.40579 4.42649 9.42396
69 1 5.059 5.21573 10.3426
27 1 4.47806 3.0505 9.22505
47 1 5.19546 7.94796 2.43487
82 1 4.90455 8.78538 1.39948
92 1 5.0144 8.61295 3.70179
55 1 5.95341 7.18716 5.53858
73 1 4.19161 7.74413 8.55678
62 1 5.53684 7.49362 7.95057
65 1 3.19209 6.8109 8.4114
61 1 5.63671 8.06901 6.60218
72 1 5.55993 6.5066 10.3029
81 1 5.54413 7.76087 11.0694
88 1 3.49987 11.0428 2.1632
85 1 3.16455 10.4098 1.00517
91 1 5.91697 9.71594 1.04399
90 1 3.67653 9.11918 1.0001
94 1 5.51007 11.7138 5.47563
97 1 5.54044 10.2859 5.25334
87 1 3.11333 10.7168 3.43176
20 1 3.18504 11.8843 4.2963
95 1 5.89847 9.73487 4.04418
93 1 5.64775 9.60237 6.45837
100 1 5.39615 10.4731 7.59658
101 1 5.51693 9.71445 8.84227
106 1 4.93343 11.8978 7.96221
33 1 3.59975 11.9983 8.55921
98 1 3.50555 11.1841 9.68144
103 1 3.22428 11.7935 10.9441
99 1 3.27887 9.79207 9.59418
102 1 4.32834 9.07969 9.01661
114 1 8.60925 1.0636 0.341457
15 1 6.28686 1.03729 5.36838
19 1 6.14573 1.31933 3.9212
121 1 7.76238 0.614062 5.91285
128 1 8.88866 2.97665 3.70562
129 1 8.35478 0.18746 9.37563
130 1 8.26103 2.13424 11.4211
137 1 7.02759 0.504277 9.32774
134 1 6.96563 2.54662 10.8961
35 1 6.87822 2.8466 9.43909
147 1 8.12484 3.78741 2.81579
139 1 8.95702 4.71955 2.11283
141 1 6.86754 4.534 3.29409
150 1 8.14886 4.52859 5.47536
156 1 6.87198 4.6036 4.71775
151 1 8.27125 5.07366 6.80782
166 1 7.22697 4.60737 7.64401
23 1 6.11789 4.13615 6.99852
167 1 7.57641 4.01855 8.90824
165 1 8.33637 4.89564 9.7276
37 1 6.09022 3.28999 11.648
49 1 6.32647 6.66491 2.15676
140 1 7.99375 7.68454 0.383597
142 1 8.58072 7.38481 2.5869
145 1 6.96274 6.67636 0.681379
171 1 8.11027 8.45739 1.63405
144 1 7.31434 7.04926 3.2988
148 1 7.18411 7.1601 4.73754
154 1 8.35935 7.1502 5.53352
153 1 8.1698 6.55922 6.73473
162 1 8.58165 7.49694 7.74916
184 1 8.14193 8.93666 7.51019
188 1 7.99517 8.26872 11.0671
74 1 6.48352 6.90777 9.14608
160 1 7.81743 7.2395 9.89896
169 1 7.09657 9.53003 1.87342
174 1 7.97704 10.9841 3.56656
170 1 6.93637 10.1165 3.21665
177 1 8.34338 9.55504 6.12299
178 1 8.10362 11.1346 6.34415
180 1 7.89147 9.70405 8.60484
181 1 8.60636 10.9521 8.71045
185 1 8.91145 11.4014 7.40967
104 1 6.73251 9.58153 9.41521
110 1 6.49943 9.08283 10.8292
86 1 6.07477 10.1283 11.7812
115 1 10.3233 1.23323 2.44296
116 1 11.6482 0.993539 2.82226
112 1 9.70433 1.22206 1.2498
111 1 9.4857 1.66562 3.53701
126 1 10.9251 0.207048 4.75638
120 1 9.76984 1.11383 4.82804
123 1 9.07273 1.35593 5.95414
127 1 9.85358 0.871564 7.35898
189 1 11.3665 0.497339 7.24559
131 1 9.26943 1.27343 8.8753
135 1 9.92736 2.45712 9.72437
136 1 9.31994 2.91918 10.9834
105 1 11.8296 0.0101488 10.1355
119 1 10.0568 4.12402 1.1601
117 1 11.2913 4.10232 1.87838
157 1 11.3328 4.9189 4.17809
124 1 9.18021 3.70881 5.01453
146 1 11.3855 3.97031 3.30822
138 1 10.2186 5.74187 3.89366
161 1 10.2777 4.94223 8.31128
155 1 9.72347 4.77316 7.05922
133 1 11.4486 4.36918 8.8939
122 1 11.7791 3.7662 6.22739
125 1 10.4313 4.01175 6.05778
163 1 9.44619 5.61201 9.18789
113 1 9.86272 3.82653 11.855
132 1 11.2015 3.12199 9.46298
143 1 9.41135 6.11047 2.82495
168 1 11.139 7.60473 0.563201
149 1 9.69535 7.6531 5.41856
152 1 10.827 7.13612 6.19421
159 1 9.168 7.09184 8.9772
158 1 11.2905 7.02504 10.2119
164 1 10.4181 7.84684 9.49228
79 1 11.2299 6.74242 11.5198
172 1 10.0074 10.0659 4.56232
173 1 11.0291 10.7553 5.07982
175 1 9.42791 9.05859 5.30838
179 1 9.28849 10.6904 3.58403
182 1 11.2861 9.8532 8.11419
186 1 11.4828 11.032 7.29613
176 1 11.9937 10.5963 6.03074
187 1 10.2157 9.88624 10.5578
190 1 10.9942 11.1135 10.7664
183 1 10.5117 9.3033 9.2034
191 1 9.03 9.33326 11.045
ITEM: TIMESTEP
2000
ITEM: NUMBER OF ATOMS
191
ITEM: BOX BOUNDS pp pp pp
-1.1644062606565619e-01 1.2116440626065659e+01
-1.1644062606565619e-01 1.2116440626065659e+01
-1.1644062606565619e-01 1.2116440626065659e+01
ITEM: ATOMS id type x y z
12 1 1.12364 0.65484 4.69185
118 1 0.0459848 0.486426 3.80569
31 1 2.49403 0.694347 8.70533
32 1 1.09219 0.704594 8.41247
11 1 0.424398 0.909258 7.20576
17 1 2.42462 2.18112 6.06429
13 1 1.22203 1.40345 5.87864
28 1 0.257597 0.980856 9.59428
29 1 0.321294 2.26131 10.1862
30 1 1.4445 2.59897 10.8983
38 1 2.59125 1.8795 10.6891
7 1 0.268584 4.90139 1.30756
6 1 0.959837 3.90558 0.616642
45 1 0.941551 5.97257 1.86279
4 1 1.62424 3.0075 1.37954
5 1 2.74308 2.89538 2.25968
14 1 2.32925 3.66575 6.5938
22 1 0.929563 3.86622 7.09032
63 1 0.684559 4.75744 8.38181
34 1 1.32825 3.90359 11.4737
64 1 1.90396 4.89757 10.755
66 1 1.82007 4.78358 9.41313
39 1 0.227868 8.79861 0.806131
43 1 2.57015 8.25377 0.542911
42 1 1.39267 8.31856 1.43669
41 1 1.80711 7.89801 2.73744
54 1 2.43591 6.79962 5.63677
50 1 2.51698 8.72787 3.66017
52 1 0.942076 6.35745 5.55548
40 1 1.08336 6.75088 3.01667
60 1 2.67324 8.1039 4.9604
53 1 0.400902 6.24011 4.15231
108 1 1.19206 8.4054 8.36318
67 1 1.62721 7.02488 8.20806
71 1 0.629386 6.17544 7.75466
59 1 0.00496155 6.5978 6.53541
109 1 -0.00348206 8.99513 7.89743
75 1 1.45882 8.82923 10.8518
76 1 2.1366 7.72069 11.5432
77 1 2.15961 6.18823 11.3373
89 1 1.71672 10.5543 0.475639
84 1 1.92822 10.7419 1.96885
96 1 1.18885 10.6413 5.90979
21 1 1.83799 11.666 5.05225
83 1 2.62259 10.1131 3.07677
176 1 -0.161928 10.8089 6.07848
107 1 1.73382 9.12024 9.48555
80 1 0.770639 9.6809 11.9537
3 1 4.84533 1.33717 1.94472
1 1 3.67474 1.91943 1.81993
2 1 6.06364 1.38735 2.50259
16 1 4.1226 0.000679615 5.60942
18 1 3.73493 1.35274 6.04861
26 1 5.681 0.729523 9.15146
24 1 5.57289 2.35058 8.71978
10 1 4.81154 2.04391 6.44123
9 1 5.63127 2.79172 7.34714
25 1 3.04625 1.99159 9.06521
36 1 2.95716 0.691606 11.2821
27 1 4.15552 2.95917 9.11611
48 1 4.13214 5.04477 0.532525
44 1 5.41064 5.38745 2.73388
46 1 4.26464 4.93431 2.00787
8 1 3.34455 4.01101 2.63835
51 1 3.57206 5.88739 5.89651
56 1 5.08273 5.82958 5.53843
70 1 3.19719 5.10209 8.36611
57 1 3.20534 4.77398 6.84401
78 1 4.87332 4.6742 11.6908
68 1 4.34276 4.45043 9.20049
69 1 4.82206 5.22942 10.3509
37 1 5.74919 3.53106 11.8538
47 1 5.0272 7.99203 2.29822
82 1 4.76242 8.94343 1.2783
49 1 5.962 6.75675 2.26063
92 1 4.98868 8.53456 3.63033
73 1 4.15256 7.74677 8.48928
62 1 5.55173 7.34111 8.03763
102 1 4.24081 9.10363 9.08625
65 1 3.01316 6.68469 8.44659
72 1 5.28668 6.56789 10.2629
81 1 5.40353 7.79183 10.9455
91 1 5.96396 9.66366 0.965278
85 1 3.13913 10.4884 -0.0340804
90 1 3.54037 9.22642 0.521087
87 1 3.64449 11.0883 3.64405
97 1 5.75244 10.2082 5.36521
20 1 3.14998 11.6988 4.76037
94 1 5.51688 11.6601 5.45212
95 1 5.89253 9.50276 4.07021
88 1 4.78852 11.1865 3.06473
93 1 5.57161 9.55443 6.6644
100 1 5.42543 10.6533 7.7466
101 1 5.44597 9.80882 8.85441
106 1 4.94605 12.0939 8.26718
33 1 3.57363 11.9745 8.78898
98 1 3.33145 11.0886 9.77524
99 1 3.06403 9.72155 9.55589
103 1 3.2939 11.5177 11.0832
86 1 6.09953 10.0843 11.8997
114 1 8.49087 1.59136 0.492179
15 1 6.72562 0.143857 4.8588
19 1 6.67252 0.897347 3.67446
123 1 9.02012 1.11349 5.36081
129 1 8.2134 0.341048 9.6938
130 1 7.97074 2.47264 11.624
137 1 6.69839 0.434433 10.059
147 1 7.74998 4.82515 2.15672
141 1 6.61197 4.65875 3.12438
150 1 8.27199 3.68596 4.78986
156 1 6.89857 4.21871 4.56604
58 1 6.00391 4.53135 5.62023
151 1 8.54567 5.10008 7.18799
166 1 7.48267 4.47686 7.754
23 1 6.21491 4.01473 7.01266
165 1 8.51307 4.36789 9.95188
35 1 6.5857 3.061 9.62589
167 1 7.52721 3.91235 9.03979
136 1 9.0675 3.35611 10.8597
134 1 6.61566 2.86667 11.0905
171 1 7.98448 8.40975 1.53868
140 1 7.68039 7.67016 0.344467
142 1 8.30168 7.43974 2.61219
145 1 6.61745 6.70414 0.813725
144 1 7.15974 7.10598 3.38867
148 1 7.27952 6.98876 4.82715
154 1 8.46246 6.90612 5.55952
55 1 6.0112 7.09253 5.69372
153 1 8.39307 6.45293 6.86183
162 1 8.42359 7.50552 7.75713
184 1 8.32202 8.99623 7.8033
61 1 5.82483 8.14263 6.80897
188 1 7.73817 8.34172 11.2186
160 1 7.71631 7.26794 10.0089
74 1 6.29731 6.72651 9.2327
159 1 8.86076 6.85405 9.19184
110 1 6.40971 8.99464 10.9461
169 1 7.04929 9.51761 1.86103
174 1 8.23515 10.6709 3.48812
170 1 7.09491 9.94969 3.23504
121 1 8.10242 12.2132 5.62549
177 1 8.84352 9.69266 6.5394
178 1 8.63501 11.1864 6.42421
180 1 7.81013 9.84973 8.79467
181 1 8.39015 11.2956 8.85414
185 1 9.0921 11.7327 7.63189
104 1 6.60292 9.54809 9.66524
191 1 8.7855 9.3173 10.997
115 1 10.7447 1.37575 2.14274
112 1 9.64534 1.31237 1.24958
116 1 12.1264 0.856063 2.40002
111 1 10.3003 1.96693 3.41849
120 1 10.1987 1.09368 4.57288
126 1 11.1342 0.0369563 4.48675
127 1 10.0096 0.590398 7.97926
189 1 11.259 0.297821 7.44453
135 1 9.93639 2.4259 9.93146
131 1 9.38011 1.2217 9.16039
105 1 11.5939 -0.0115457 10.2536
119 1 10.0414 4.60122 1.1022
117 1 11.2977 4.36433 1.77698
139 1 9.14345 5.32992 1.84381
113 1 9.61707 4.11246 -0.227187
157 1 11.4015 5.65408 3.80295
124 1 9.71034 3.67876 5.08423
128 1 10.5515 3.33228 3.94527
146 1 11.4289 4.24394 3.33964
161 1 10.4491 4.92288 8.5592
155 1 9.95001 4.645 7.21078
122 1 12.0089 3.76584 6.2677
133 1 11.5239 4.2417 9.13647
125 1 10.5904 4.07276 6.17024
163 1 9.2795 5.49107 9.405
132 1 11.3775 2.94869 9.79466
143 1 9.39578 6.53647 2.48136
168 1 11.3655 8.02806 0.802306
149 1 9.728 7.63764 5.55809
138 1 10.2355 6.47778 3.52764
152 1 10.992 7.23836 6.18089
158 1 10.8965 7.19149 10.6391
164 1 10.2429 7.85695 9.51234
79 1 10.8657 7.28124 12.0115
172 1 10.2804 9.99879 4.71408
173 1 11.1685 11.0344 5.00566
179 1 9.60485 10.5257 3.41429
175 1 9.59629 9.10745 5.52671
182 1 11.3359 9.87748 8.23035
186 1 11.4658 11.0836 7.41456
187 1 9.95421 10.0707 10.2969
190 1 10.713 11.2425 10.4841
183 1 10.4066 9.30587 9.20132
ITEM: TIMESTEP
3000
ITEM: NUMBER OF ATOMS
191
ITEM: BOX BOUNDS pp pp pp
-2.3232825901940890e-01 1.2232328259019370e+01
-2.3232825901940890e-01 1.2232328259019370e+01
-2.3232825901940890e-01 1.2232328259019370e+01
ITEM: ATOMS id type x y z
4 1 2.16682 2.70285 1.24073
12 1 0.942233 0.674323 4.81999
118 1 -0.0952316 0.618112 3.91107
31 1 2.82523 0.854691 8.89261
32 1 1.24263 0.748048 8.62056
11 1 0.437975 0.753815 7.27372
13 1 1.11109 1.353 6.06398
17 1 2.22693 2.19956 6.2249
28 1 0.219016 0.797388 9.68965
29 1 0.0869076 2.15995 10.2919
30 1 1.29821 2.46027 10.9679
38 1 2.56669 1.7859 10.8467
36 1 2.7039 0.438811 11.5319
7 1 0.388672 4.411 1.25662
6 1 1.23138 3.72394 0.444674
45 1 1.07867 5.37234 1.90733
53 1 0.394722 5.85733 4.04657
14 1 2.00842 3.54077 6.80632
22 1 0.597575 3.84791 7.09373
63 1 0.405292 4.67434 8.30605
57 1 2.90316 4.66992 6.97687
34 1 1.25418 3.86339 11.4974
64 1 1.39544 4.91885 10.6622
66 1 1.53556 4.91918 9.22123
39 1 0.488843 8.26666 0.727863
43 1 2.70223 7.95015 0.403154
42 1 1.71882 7.86567 1.39894
41 1 1.50934 7.61487 2.68376
54 1 2.25311 6.45288 5.41693
50 1 2.14964 8.5429 3.59174
52 1 0.750719 6.22473 5.31732
60 1 2.45914 7.73323 4.73445
40 1 1.07534 6.28016 2.87398
108 1 1.30364 8.50331 8.60128
67 1 1.59976 7.23067 8.16405
71 1 0.528973 6.50507 7.72049
59 1 -0.15625 6.68405 6.33599
75 1 1.3628 8.60459 11.1252
76 1 2.23776 7.47966 11.5431
77 1 1.95029 6.10568 11.2325
107 1 1.781 8.99767 9.81363
89 1 1.56051 10.4288 0.585671
84 1 1.40047 10.4192 1.97032
80 1 0.862022 9.3727 -0.157973
83 1 2.30561 9.98383 3.12343
21 1 1.72945 11.9465 5.05663
96 1 0.992275 10.9531 5.6488
109 1 0.271075 9.13154 8.0587
3 1 4.95423 0.445394 2.30456
1 1 4.33932 1.49534 1.65236
5 1 3.40022 2.59205 1.87621
16 1 4.11321 0.0726726 5.45017
10 1 4.7024 1.9853 6.67551
9 1 5.58331 2.95278 7.3178
18 1 3.65691 1.49003 6.03084
25 1 3.29812 2.03976 9.6429
48 1 4.16739 5.21277 0.544398
8 1 4.06358 3.7447 2.41222
46 1 4.55843 4.87423 1.85081
44 1 5.78109 5.3411 2.44415
51 1 3.21489 5.49361 5.96344
56 1 4.79702 5.81546 5.75701
58 1 5.83601 4.68422 5.64151
70 1 2.95793 5.20697 8.47769
24 1 5.55011 2.85901 8.7835
78 1 4.84397 4.78453 11.7635
68 1 3.78825 4.58471 9.44734
69 1 4.59382 5.46652 10.5448
27 1 4.21487 3.11142 9.32382
37 1 5.96633 3.8853 11.9418
47 1 4.52852 8.42208 2.55072
92 1 4.81946 8.99742 3.73361
55 1 5.86463 7.19916 5.52264
73 1 4.1277 7.61027 8.41144
62 1 5.60916 7.39526 7.93985
61 1 5.7654 8.0536 6.64398
65 1 2.97805 6.77825 8.40646
102 1 4.01527 8.99686 9.00102
72 1 5.3217 6.70362 10.1088
81 1 5.29754 7.87704 10.9349
88 1 4.2472 11.7253 2.66058
90 1 3.61154 9.05209 0.413213
82 1 4.60805 9.03357 1.34669
91 1 5.86522 9.65629 0.924058
85 1 2.87245 10.4924 -0.0260255
87 1 3.19115 11.0029 3.4545
97 1 5.55824 10.4473 5.44405
94 1 5.41785 11.8333 5.46066
20 1 3.009 11.8274 4.68646
95 1 5.78404 9.93817 4.14985
93 1 5.5537 9.65586 6.58668
100 1 5.25275 10.4951 7.75184
101 1 5.31625 9.6752 8.87136
33 1 3.47929 12.0102 8.83119
106 1 4.95476 11.886 8.47571
103 1 3.02397 11.4967 11.3986
98 1 3.10752 11.063 9.9317
99 1 2.94614 9.63997 9.64945
114 1 8.9221 1.76136 0.157415
15 1 6.65055 -0.0134752 5.30429
19 1 6.64092 0.82123 4.19316
123 1 8.834 0.774897 5.28609
121 1 7.89638 -0.165789 5.84919
2 1 6.0547 0.881658 2.98862
129 1 8.52003 0.194026 9.60364
130 1 8.04258 2.66237 11.634
26 1 6.00139 0.328956 9.08056
137 1 7.1523 0.438041 9.82605
147 1 8.02914 4.61402 2.32215
156 1 6.84246 4.31116 4.51163
150 1 8.25274 3.97527 4.86613
141 1 6.74766 4.59125 3.07309
151 1 8.46836 5.35034 7.01609
166 1 7.50395 4.48468 7.66919
23 1 6.32971 3.90419 6.84049
167 1 7.50345 4.15973 9.04973
165 1 8.59967 4.61223 9.90631
35 1 6.59216 3.19922 9.70711
134 1 6.77959 3.00711 11.1224
171 1 8.05998 8.61064 1.36628
140 1 7.78338 7.81849 0.231591
142 1 8.47414 7.77782 2.45015
145 1 6.82281 6.90066 0.732565
49 1 6.42779 6.57468 2.17086
144 1 7.35632 7.25133 3.25387
148 1 7.29381 7.28244 4.6976
154 1 8.44605 7.26803 5.46544
153 1 8.24139 6.8216 6.81884
162 1 8.44916 7.76827 7.92209
74 1 6.40025 6.92604 9.07472
188 1 7.84392 8.12995 11.2484
160 1 7.80046 7.23565 10.0285
110 1 6.51704 8.92048 11.0025
159 1 9.01587 7.15152 9.22936
169 1 7.01346 9.49524 1.82433
174 1 8.02051 10.7851 3.5074
170 1 6.89731 10.1167 3.15204
177 1 8.65577 9.86916 6.56432
178 1 8.55843 11.298 6.72148
180 1 7.68893 10.1939 8.76001
184 1 8.16233 9.0608 7.77474
181 1 8.58509 11.4719 9.01201
104 1 6.60142 9.57043 9.5699
86 1 6.10781 9.85022 11.9781
191 1 8.95394 9.31522 11.0097
115 1 10.5388 1.62373 2.24811
112 1 9.76617 1.35303 1.11685
116 1 12.0061 1.02505 2.49137
111 1 10.0827 1.9624 3.57781
120 1 9.95259 0.759164 4.43836
126 1 11.2076 -0.025566 4.5524
127 1 10.3663 0.442493 8.21871
189 1 11.6657 0.026799 7.6252
135 1 10.1212 2.5353 10.1014
131 1 9.6612 1.24067 9.40963
119 1 10.24 4.70745 0.980556
117 1 11.4333 4.40576 1.74234
139 1 9.07775 5.30487 1.64416
157 1 11.4842 5.45193 3.76079
124 1 9.67632 4.036 4.9372
128 1 10.2816 3.41703 3.8368
146 1 11.2521 4.22263 3.14579
161 1 10.3772 5.0733 8.5225
155 1 9.79025 4.85003 7.22062
122 1 11.8161 3.80827 6.29121
125 1 10.4608 4.22049 6.15092
133 1 11.472 4.21069 9.0133
163 1 9.41703 5.68005 9.31307
113 1 10.1623 4.09086 12.075
136 1 9.16979 3.50672 10.894
132 1 11.4196 3.02456 9.9805
143 1 9.45285 6.62883 2.28753
168 1 11.7254 7.61486 0.506359
149 1 9.80653 7.9333 5.47622
138 1 10.4729 6.45971 3.20526
152 1 11.1835 7.49702 5.7288
158 1 11.1542 7.17587 10.3956
164 1 10.4438 7.83157 9.40389
79 1 11.1921 7.29478 11.7087
172 1 10.1367 10.2206 4.74277
173 1 11.1695 11.0774 5.05489
179 1 9.2672 10.7769 3.77177
175 1 9.63128 9.2725 5.74451
182 1 11.5387 9.89771 8.20155
186 1 11.6629 11.0861 7.42414
185 1 9.33653 11.8013 7.73822
176 1 12.0525 10.6851 6.04028
187 1 10.1003 9.98563 10.4935
190 1 10.8298 11.1963 10.7514
183 1 10.6773 9.29227 9.22745
105 1 12.0995 12.0826 10.2407
ITEM: TIMESTEP
4000
ITEM: NUMBER OF ATOMS
191
ITEM: BOX BOUNDS pp pp pp
-1.6866912129146483e-01 1.2168669121291440e+01
-1.6866912129146483e-01 1.2168669121291440e+01
-1.6866912129146483e-01 1.2168669121291440e+01
ITEM: ATOMS id type x y z
4 1 1.80212 2.70811 1.46539
12 1 1.09699 0.679669 4.99548
118 1 0.150266 0.543598 3.88357
31 1 2.72239 0.905985 8.68012
32 1 1.3355 0.65083 8.65705
11 1 0.531633 0.786175 7.42141
13 1 1.0663 1.33905 6.22398
17 1 2.46974 2.11622 6.24359
28 1 0.327936 0.753753 9.85359
29 1 0.41105 2.15517 10.382
30 1 1.61832 2.57232 10.9979
38 1 2.77323 1.71809 10.7613
7 1 0.107393 4.5218 1.29136
6 1 1.08513 3.65368 0.769547
45 1 0.751011 5.66311 1.89319
22 1 0.97508 3.87687 5.59321
14 1 2.2619 3.6601 6.28451
63 1 0.49778 5.16578 8.83918
34 1 1.55964 3.70622 11.7499
64 1 1.83738 4.93379 11.0024
66 1 1.71621 5.00968 9.48396
39 1 0.268365 8.61101 0.836014
41 1 1.62466 7.60661 2.68886
42 1 1.45306 8.05851 1.37025
43 1 2.53407 8.10351 0.496709
54 1 2.55723 6.62779 5.31072
50 1 2.22376 8.5828 3.53478
52 1 0.994473 6.3459 5.26742
60 1 2.72899 7.97483 4.7546
53 1 0.336281 6.09418 4.1273
40 1 1.06685 6.41048 2.93631
108 1 1.20163 8.61239 8.57076
67 1 1.59947 7.3095 8.2112
71 1 0.556904 6.2588 7.72881
59 1 0.0431673 6.62646 6.30758
75 1 1.35537 8.65608 11.0227
76 1 2.1376 7.55134 11.632
77 1 2.36423 6.1915 11.3408
89 1 1.42488 10.5953 0.478445
84 1 1.42159 10.4856 1.96297
83 1 2.23917 9.94906 3.0218
21 1 1.80801 11.7013 5.21608
96 1 1.10579 10.5956 5.7254
109 1 0.0585921 9.12856 8.02832
80 1 0.589802 9.5697 12.0831
107 1 1.82735 9.10628 9.74907
85 1 2.75233 10.5634 12.1597
3 1 4.47154 0.423547 2.55678
1 1 3.38548 1.31716 2.35041
5 1 2.95095 2.63307 2.17999
16 1 4.22234 0.0558029 5.26265
18 1 3.90172 1.31333 5.96347
2 1 5.70591 1.13338 3.01396
10 1 5.01457 2.17905 6.13308
24 1 5.5626 2.90149 8.69489
26 1 5.84191 0.46417 8.51298
9 1 5.76109 2.80063 7.12561
25 1 3.27297 1.88247 9.48706
36 1 3.28278 0.749932 11.5943
48 1 4.61594 5.01527 0.601582
8 1 3.66125 3.86894 2.42191
46 1 4.44649 4.96236 2.01855
44 1 5.57159 5.35998 2.83145
51 1 3.7332 5.68454 5.9738
56 1 5.12676 5.87253 5.6606
70 1 2.97402 5.27096 8.67889
57 1 3.19192 4.68292 6.94673
78 1 5.11353 4.54252 11.6856
68 1 4.01171 4.57777 9.36352
69 1 4.70943 5.17508 10.5119
27 1 4.20426 3.03703 9.20203
37 1 5.9066 3.36584 11.6019
47 1 4.5768 8.39965 2.24236
92 1 4.96543 8.60161 3.46901
55 1 5.89948 7.00206 5.69018
73 1 4.14533 7.71573 8.40214
62 1 5.62927 7.42057 8.22301
61 1 5.84876 8.04745 6.84808
65 1 3.0151 6.81494 8.41706
102 1 4.08048 8.99965 8.98878
72 1 5.24112 6.66977 10.4669
81 1 5.1024 8.05668 10.9684
91 1 5.87073 9.8373 0.829106
88 1 4.27184 11.3445 2.5674
90 1 3.38174 9.35362 0.366782
82 1 4.66861 9.11416 1.04319
87 1 3.29747 10.8487 3.47196
97 1 5.60421 10.4099 5.31941
94 1 5.56283 11.7936 5.35351
20 1 3.15549 11.4726 4.748
95 1 5.89469 9.60724 4.16408
93 1 5.44483 9.70072 6.57253
100 1 5.10938 10.5554 7.71749
101 1 5.22218 9.72754 8.80422
106 1 4.87002 11.9723 8.07883
33 1 3.57859 12.071 8.71457
98 1 3.22598 11.1838 9.85463
103 1 3.2596 11.5915 11.2696
99 1 3.02616 9.84855 9.48217
110 1 5.93593 9.19126 10.8556
114 1 8.80426 1.90926 0.326791
15 1 6.66695 0.146969 5.08883
19 1 6.63531 0.914276 3.96602
123 1 8.99894 0.780494 5.00017
121 1 7.96748 -0.0301983 5.50845
129 1 8.17102 0.501159 9.56645
130 1 8.30445 2.49173 11.4807
134 1 6.94611 2.55434 11.0376
35 1 6.82122 2.57529 9.52468
137 1 6.92771 1.0534 9.27218
147 1 7.85288 4.4954 2.35309
139 1 8.96482 5.24849 1.91366
156 1 7.02301 4.43298 4.67442
150 1 8.24057 3.81274 4.99218
58 1 6.02787 4.76295 5.64917
141 1 6.74421 4.68108 3.30637
151 1 8.50866 5.17984 7.26639
166 1 7.61678 4.25061 7.75987
23 1 6.48181 3.96581 6.82141
167 1 7.82986 3.63458 8.99857
165 1 8.64292 4.36883 9.87007
171 1 7.81101 8.65251 1.53906
140 1 7.42784 7.86648 0.411963
142 1 8.40523 7.69441 2.47637
145 1 6.56616 6.81476 0.920776
49 1 6.25071 6.58333 2.367
144 1 7.24822 7.17025 3.29373
148 1 7.09892 7.08816 4.76436
154 1 8.38673 7.16635 5.60899
153 1 8.24204 6.60381 7.00676
162 1 8.5372 7.59698 8.00119
188 1 7.97995 8.12664 11.3024
160 1 7.7942 7.30812 10.1248
74 1 6.39903 6.88854 9.41239
159 1 9.02888 6.98929 9.32296
169 1 6.95949 9.77579 1.81018
174 1 8.16328 10.6078 3.64094
170 1 7.00546 10.1296 3.29968
177 1 8.62094 9.85643 6.66136
178 1 8.31704 11.2623 6.54652
185 1 8.97304 11.9605 7.69589
180 1 7.61378 10.1411 8.92505
184 1 8.19434 9.05678 7.85302
181 1 8.30605 11.5256 8.91387
104 1 6.43329 9.66807 9.47168
191 1 8.83734 9.31889 11.1949
86 1 6.14035 10.1667 11.9047
115 1 10.7548 1.51653 2.13941
112 1 9.99366 1.54003 0.930464
116 1 12.0983 0.774244 2.35833
111 1 10.1939 1.94615 3.3858
120 1 10.1566 0.891224 4.3513
126 1 11.2898 0.0190492 4.37988
127 1 10.1985 0.644509 8.0236
189 1 11.5004 0.12274 7.64713
135 1 10.292 2.48656 9.83624
131 1 9.60545 1.4078 9.14713
119 1 9.86248 4.58362 1.05411
117 1 11.0678 4.32509 1.82719
157 1 11.3233 5.87811 3.71768
124 1 9.60306 3.60611 5.09797
128 1 10.2519 3.37997 3.9082
146 1 10.9379 4.52357 3.28661
122 1 12.0249 4.08441 5.88716
161 1 10.4315 4.95835 8.55362
155 1 10.013 4.79276 7.19606
125 1 10.6485 4.10849 6.117
163 1 9.35689 5.49557 9.40736
113 1 9.74586 4.30563 12.0073
136 1 9.26798 3.43682 10.8836
132 1 11.6352 3.04099 9.90607
133 1 11.6964 4.36078 9.09841
143 1 9.36511 6.70272 2.27749
168 1 11.5592 7.56007 0.696243
149 1 9.79244 7.85586 5.74344
138 1 10.6005 6.8207 3.01785
152 1 11.0634 7.24269 5.93138
158 1 11.1206 7.05164 10.4747
164 1 10.2655 7.77585 9.60199
79 1 11.1995 7.01025 11.8587
172 1 10.2688 9.9826 4.76479
173 1 11.208 11.0243 4.998
179 1 9.42572 10.1847 3.69012
175 1 9.64622 9.27469 5.74659
182 1 11.2606 10.0258 8.36606
186 1 11.4298 11.0848 7.41244
176 1 12.0247 10.6055 6.12796
187 1 9.91319 10.0154 10.4636
190 1 10.9254 11.0465 10.7131
183 1 10.3142 9.31109 9.27365
105 1 11.6241 12.114 10.3068
ITEM: TIMESTEP
5000
ITEM: NUMBER OF ATOMS
191
ITEM: BOX BOUNDS pp pp pp
-8.3844817600480862e-02 1.2083844817600449e+01
-8.3844817600480862e-02 1.2083844817600449e+01
-8.3844817600480862e-02 1.2083844817600449e+01
ITEM: ATOMS id type x y z
116 1 0.124019 0.953208 2.66007
12 1 1.3036 0.560361 5.07769
118 1 0.38997 0.647793 3.97652
31 1 2.89995 1.00527 8.79787
32 1 1.38799 0.926259 8.70033
11 1 0.601776 0.948971 7.40483
17 1 2.61308 2.06364 6.47448
13 1 1.41496 1.38135 6.24542
28 1 0.428452 0.889861 9.86938
29 1 0.256266 2.19991 10.2436
30 1 1.35142 2.68634 10.9708
38 1 2.57915 1.9857 10.9119
36 1 2.95642 0.724725 11.4835
7 1 0.169541 4.62484 1.2311
6 1 1.22434 3.93775 0.67837
4 1 1.9846 2.98513 1.29193
14 1 2.35198 3.45619 6.68931
63 1 0.569648 5.08683 8.54643
22 1 1.03805 3.71285 6.10546
34 1 1.42717 3.95025 11.4459
64 1 1.67224 5.0991 10.7337
66 1 1.72105 4.87445 9.29497
39 1 0.318432 8.66112 0.841901
41 1 1.73977 7.69743 2.73679
42 1 1.58977 8.33681 1.46626
43 1 2.67063 8.23112 0.499598
45 1 0.65895 5.91549 1.63671
54 1 2.55057 6.50565 5.33026
50 1 2.34611 8.61509 3.69085
52 1 1.05519 6.17609 5.26553
60 1 2.92781 7.78092 4.77737
40 1 0.992103 6.57207 2.86948
53 1 0.314917 5.94293 3.99554
108 1 1.22052 8.31189 8.48749
67 1 1.65983 7.02217 8.14938
71 1 0.5937 6.20489 7.80559
59 1 0.104868 6.5145 6.44048
109 1 -0.037751 8.6436 8.0598
75 1 1.29242 8.81804 10.8297
76 1 2.10979 7.74148 11.4365
77 1 1.89341 6.41958 11.0538
89 1 1.53298 10.5247 0.542732
84 1 1.68864 10.4738 1.95437
85 1 2.91376 10.4501 -0.063594
96 1 1.2552 10.4006 6.04841
21 1 1.95144 11.4807 5.33253
83 1 2.49753 9.95142 3.09823
107 1 1.75324 9.04958 9.60848
80 1 0.69848 9.56638 12.004
99 1 2.98456 9.71055 9.5077
3 1 4.60478 0.851139 2.40625
1 1 4.03742 1.72841 1.59219
5 1 3.14912 2.83172 1.91684
16 1 4.25192 0.0860236 5.61034
10 1 5.01302 1.99929 6.56665
26 1 5.95455 0.282941 8.6863
33 1 3.5934 -0.173185 8.76477
18 1 3.87829 1.3049 6.13754
25 1 3.23372 2.1165 9.61081
48 1 4.68032 5.20554 0.850939
8 1 3.81922 3.88186 2.6566
46 1 4.67025 4.83443 2.23707
44 1 5.75052 5.35595 2.88399
56 1 5.08543 5.90953 5.81466
51 1 3.51047 5.78099 6.00563
70 1 3.10609 5.13715 8.47073
57 1 3.0506 4.70512 6.95624
24 1 5.44028 2.86158 8.85807
9 1 5.5185 3.00095 7.51486
78 1 5.15425 4.73271 11.8182
68 1 4.06157 4.71185 9.53971
69 1 4.83206 5.44867 10.6819
27 1 4.2345 3.24843 9.41751
37 1 6.00341 3.59426 11.9036
47 1 4.4524 8.57811 2.56247
92 1 5.11077 8.66221 3.66422
55 1 5.90615 7.1461 5.69659
73 1 4.00532 7.55123 8.46703
62 1 5.35641 7.29734 7.98641
61 1 5.59982 8.13472 6.57268
65 1 3.01752 6.66438 8.27168
102 1 4.05008 8.97589 8.86821
72 1 5.30095 6.74968 10.4185
81 1 5.09199 8.13292 10.9386
88 1 4.17214 11.7889 2.68041
91 1 5.91383 9.82242 0.988496
90 1 3.58959 9.29983 0.440228
82 1 4.72476 9.36311 1.3352
87 1 3.35078 10.9631 3.4781
97 1 5.69676 10.338 5.15478
94 1 5.53939 11.7242 5.32041
20 1 3.27486 11.3327 4.85382
93 1 5.45089 9.58425 6.38909
100 1 5.35129 10.4532 7.54296
101 1 5.31659 9.52917 8.59137
106 1 4.91334 11.7138 8.19166
98 1 3.17153 11.0141 9.7398
103 1 3.14438 11.5195 11.1802
2 1 5.90633 1.12131 2.90441
15 1 6.63928 0.323006 5.2239
19 1 6.50224 1.26384 4.16157
121 1 7.92358 -0.0499231 5.75379
129 1 8.296 0.663607 9.37108
130 1 8.28575 2.64113 11.6646
134 1 6.88226 2.96495 11.1205
35 1 6.68516 2.667 9.58257
137 1 6.8909 1.11648 9.40736
147 1 7.81496 4.58164 2.37472
139 1 8.88852 5.24601 1.73531
156 1 6.8742 4.26746 4.67165
150 1 8.23209 3.84621 5.06999
141 1 6.78022 4.46614 3.29681
58 1 5.95991 4.78647 5.61484
151 1 8.50268 5.19156 7.00179
166 1 7.38543 4.45933 7.62532
23 1 6.06508 4.17369 6.96857
165 1 8.64016 4.42972 9.76372
167 1 7.61953 3.81415 8.91363
171 1 7.94102 8.44126 1.54492
140 1 7.52391 7.60376 0.411266
142 1 8.31057 7.59152 2.56759
145 1 6.53745 6.70007 1.03925
49 1 6.29509 6.57596 2.43125
144 1 7.20673 7.29265 3.40902
148 1 7.18076 7.1887 4.85785
154 1 8.40776 7.20036 5.58874
153 1 8.16707 6.61078 6.84355
162 1 8.34607 7.6232 7.92654
188 1 8.01802 7.96683 11.262
160 1 7.65078 7.22178 9.97085
74 1 6.25228 7.03571 9.34203
159 1 8.86994 7.17292 9.12938
169 1 7.01807 9.46106 1.74764
174 1 8.26265 10.7056 3.24336
170 1 7.07766 10.0867 3.04468
95 1 5.97282 9.69921 4.03549
177 1 8.56844 9.7205 6.52958
178 1 8.4044 11.1632 6.53247
181 1 8.28635 11.5455 8.89952
180 1 7.61595 10.07 8.84546
184 1 8.0486 9.02828 7.72846
104 1 6.31438 9.68743 9.42615
110 1 5.93819 9.2933 10.7042
86 1 6.21176 10.1097 11.8538
191 1 8.78841 9.30573 11.0645
115 1 10.9824 1.40715 2.27004
112 1 10.1808 1.42178 1.10666
114 1 8.93212 1.64387 0.460869
111 1 10.244 1.80481 3.5294
120 1 10.0352 0.779703 4.40706
123 1 8.90043 0.711304 5.08282
127 1 10.156 0.607635 7.92148
189 1 11.4865 0.182923 7.50207
135 1 10.14 2.60542 9.74294
131 1 9.64784 1.37454 9.07275
119 1 10.0131 4.57185 1.05507
117 1 11.1494 4.29557 1.75928
157 1 11.2191 5.52921 3.69031
124 1 9.65569 3.56153 5.06268
128 1 10.3212 3.34442 3.76907
146 1 11.0396 4.27028 3.06087
161 1 10.447 5.03451 8.41181
155 1 9.85464 4.67804 7.18461
125 1 10.4839 3.82383 6.26559
133 1 11.6039 4.31404 8.93886
122 1 11.8196 3.55426 6.17615
163 1 9.38012 5.53762 9.41517
132 1 11.5081 3.15677 9.72612
113 1 9.8584 4.32388 11.876
136 1 9.29085 3.51043 10.8217
143 1 9.13191 6.46622 2.4157
168 1 11.5267 7.67764 0.633638
149 1 9.73939 7.82659 5.58462
138 1 10.179 6.40501 3.30496
152 1 10.9195 7.16402 6.10251
158 1 10.9151 7.21365 10.5172
164 1 10.1526 7.90094 9.54237
79 1 10.9107 7.08995 11.8202
172 1 10.2414 9.89948 4.44011
173 1 11.2588 10.7773 4.9479
179 1 9.53997 10.1893 3.35498
175 1 9.46759 9.18374 5.43572
126 1 11.248 12.2292 4.5797
182 1 11.1703 9.70695 8.31942
186 1 11.5945 10.7676 7.44048
176 1 12.0199 10.3959 6.03622
185 1 9.11274 11.7388 7.57316
187 1 9.91267 10.0285 10.3811
190 1 10.5273 11.3052 10.584
183 1 10.3402 9.20932 9.28881
105 1 11.6452 12.0732 10.2544
ITEM: TIMESTEP
6000
ITEM: NUMBER OF ATOMS
191
ITEM: BOX BOUNDS pp pp pp
-1.2094714116794071e-01 1.2120947141167884e+01
-1.2094714116794071e-01 1.2120947141167884e+01
-1.2094714116794071e-01 1.2120947141167884e+01
ITEM: ATOMS id type x y z
4 1 1.61973 2.69642 1.50605
12 1 1.06358 0.452544 5.05535
118 1 0.0432982 0.460862 4.06594
31 1 2.77844 1.00722 8.61714
32 1 1.35425 0.67603 8.70876
11 1 0.498632 0.717378 7.46592
13 1 1.19349 1.23557 6.19532
17 1 2.40459 1.94041 6.25362
28 1 0.428423 0.773845 9.85712
29 1 0.190638 2.14406 10.2052
30 1 1.44706 2.52554 10.8475
38 1 2.65219 1.89547 10.7833
36 1 3.05349 0.675402 11.4367
7 1 0.362971 4.57441 1.16457
6 1 1.16321 3.68022 0.548541
45 1 1.05726 5.64755 1.78384
14 1 2.22014 3.42316 6.3857