ITEM: TIMESTEP
1000
ITEM: NUMBER OF ATOMS
191
ITEM: BOX BOUNDS pp pp pp
0.0000000000000000e+00 1.2000000000000000e+01
0.0000000000000000e+00 1.2000000000000000e+01
0.0000000000000000e+00 1.2000000000000000e+01
ITEM: ATOMS id type x y z
12 1 1.20509 0.848646 4.8824
1 1 2.45416 2.21262 3.44646
118 1 0.0568909 0.931156 4.21542
31 1 2.7963 1.20012 8.59879
32 1 1.33362 1.11411 8.47168
11 1 0.524598 1.20419 7.34151
17 1 2.71238 2.40746 6.16634
13 1 1.38231 1.67759 6.10224
28 1 0.600435 1.06936 9.68613
29 1 0.380463 2.49177 10.0643
30 1 1.54051 2.88833 10.6729
38 1 2.76966 2.1392 10.5977
4 1 2.18611 3.42645 1.49308
6 1 1.37529 4.1638 0.681185
7 1 0.316389 4.7799 1.23673
5 1 2.72351 3.38718 2.80547
53 1 0.358511 5.83537 4.1516
14 1 2.48962 3.77126 6.47623
22 1 1.04066 4.12647 6.92577
63 1 0.861504 4.89394 8.19573
34 1 1.60511 4.1806 11.3394
64 1 1.84804 5.17285 10.4568
66 1 1.97643 4.87993 9.13738
39 1 0.181589 8.50532 0.712513
43 1 2.65505 8.15867 0.868042
42 1 1.41328 7.99508 1.5577
45 1 0.410238 6.0196 1.6437
40 1 0.607622 6.50916 2.98891
41 1 1.37971 7.70322 2.91852
54 1 2.3679 6.52629 5.21292
50 1 2.14686 8.46843 3.69532
52 1 1.04645 6.21113 5.25484
60 1 2.43505 7.90596 4.88676
59 1 0.319578 6.54721 6.41356
67 1 1.82448 7.31926 8.10585
71 1 0.824954 6.39916 7.65354
108 1 1.50378 8.72625 8.5489
75 1 1.63839 8.73584 10.9
76 1 2.39605 7.75422 11.4558
77 1 2.36185 6.3648 11.1126
89 1 1.68557 10.4378 0.778156
84 1 1.26087 10.293 2.26055
96 1 1.39937 10.5244 5.80047
21 1 1.92503 11.6793 5.0829
83 1 1.97272 9.86486 3.45811
109 1 0.460584 9.13924 7.92927
107 1 1.96788 9.23301 9.68906
80 1 0.964113 9.47731 11.8748
3 1 3.46182 1.23958 3.5408
16 1 4.12741 0.164967 5.50129
2 1 4.94593 1.47411 3.18049
9 1 5.79569 2.82726 7.153
24 1 5.70492 2.43076 8.65892
26 1 5.83625 0.933983 8.58776
10 1 5.33926 2.06308 6.16372
18 1 3.95423 1.52412 6.0336
25 1 3.47206 2.22466 9.36298
36 1 3.1563 1.05003 11.3995
48 1 4.33373 4.65548 0.709691
44 1 5.99016 5.22315 2.44868
46 1 4.83482 4.57961 2.03733
8 1 3.91788 4.06314 2.96916
58 1 5.89245 4.77236 5.62939
56 1 5.05263 5.94244 5.47293
51 1 3.61934 5.79543 5.77172
70 1 3.40603 5.25056 8.37877
57 1 3.29911 4.88631 6.83742
78 1 5.12797 4.29346 11.5245
68 1 4.40579 4.42649 9.42396
69 1 5.059 5.21573 10.3426
27 1 4.47806 3.0505 9.22505
47 1 5.19546 7.94796 2.43487
82 1 4.90455 8.78538 1.39948
92 1 5.0144 8.61295 3.70179
55 1 5.95341 7.18716 5.53858
73 1 4.19161 7.74413 8.55678
62 1 5.53684 7.49362 7.95057
65 1 3.19209 6.8109 8.4114
61 1 5.63671 8.06901 6.60218
72 1 5.55993 6.5066 10.3029
81 1 5.54413 7.76087 11.0694
88 1 3.49987 11.0428 2.1632
85 1 3.16455 10.4098 1.00517
91 1 5.91697 9.71594 1.04399
90 1 3.67653 9.11918 1.0001
94 1 5.51007 11.7138 5.47563
97 1 5.54044 10.2859 5.25334
87 1 3.11333 10.7168 3.43176
20 1 3.18504 11.8843 4.2963
95 1 5.89847 9.73487 4.04418
93 1 5.64775 9.60237 6.45837
100 1 5.39615 10.4731 7.59658
101 1 5.51693 9.71445 8.84227
106 1 4.93343 11.8978 7.96221
33 1 3.59975 11.9983 8.55921
98 1 3.50555 11.1841 9.68144
103 1 3.22428 11.7935 10.9441
99 1 3.27887 9.79207 9.59418
102 1 4.32834 9.07969 9.01661
114 1 8.60925 1.0636 0.341457
15 1 6.28686 1.03729 5.36838
19 1 6.14573 1.31933 3.9212
121 1 7.76238 0.614062 5.91285
128 1 8.88866 2.97665 3.70562
129 1 8.35478 0.18746 9.37563
130 1 8.26103 2.13424 11.4211
137 1 7.02759 0.504277 9.32774
134 1 6.96563 2.54662 10.8961
35 1 6.87822 2.8466 9.43909
147 1 8.12484 3.78741 2.81579
139 1 8.95702 4.71955 2.11283
141 1 6.86754 4.534 3.29409
150 1 8.14886 4.52859 5.47536
156 1 6.87198 4.6036 4.71775
151 1 8.27125 5.07366 6.80782
166 1 7.22697 4.60737 7.64401
23 1 6.11789 4.13615 6.99852
167 1 7.57641 4.01855 8.90824
165 1 8.33637 4.89564 9.7276
37 1 6.09022 3.28999 11.648
49 1 6.32647 6.66491 2.15676
140 1 7.99375 7.68454 0.383597
142 1 8.58072 7.38481 2.5869
145 1 6.96274 6.67636 0.681379
171 1 8.11027 8.45739 1.63405
144 1 7.31434 7.04926 3.2988
148 1 7.18411 7.1601 4.73754
154 1 8.35935 7.1502 5.53352
153 1 8.1698 6.55922 6.73473
162 1 8.58165 7.49694 7.74916
184 1 8.14193 8.93666 7.51019
188 1 7.99517 8.26872 11.0671
74 1 6.48352 6.90777 9.14608
160 1 7.81743 7.2395 9.89896
169 1 7.09657 9.53003 1.87342
174 1 7.97704 10.9841 3.56656
170 1 6.93637 10.1165 3.21665
177 1 8.34338 9.55504 6.12299
178 1 8.10362 11.1346 6.34415
180 1 7.89147 9.70405 8.60484
181 1 8.60636 10.9521 8.71045
185 1 8.91145 11.4014 7.40967
104 1 6.73251 9.58153 9.41521
110 1 6.49943 9.08283 10.8292
86 1 6.07477 10.1283 11.7812
115 1 10.3233 1.23323 2.44296
116 1 11.6482 0.993539 2.82226
112 1 9.70433 1.22206 1.2498
111 1 9.4857 1.66562 3.53701
126 1 10.9251 0.207048 4.75638
120 1 9.76984 1.11383 4.82804
123 1 9.07273 1.35593 5.95414
127 1 9.85358 0.871564 7.35898
189 1 11.3665 0.497339 7.24559
131 1 9.26943 1.27343 8.8753
135 1 9.92736 2.45712 9.72437
136 1 9.31994 2.91918 10.9834
105 1 11.8296 0.0101488 10.1355
119 1 10.0568 4.12402 1.1601
117 1 11.2913 4.10232 1.87838
157 1 11.3328 4.9189 4.17809
124 1 9.18021 3.70881 5.01453
146 1 11.3855 3.97031 3.30822
138 1 10.2186 5.74187 3.89366
161 1 10.2777 4.94223 8.31128
155 1 9.72347 4.77316 7.05922
133 1 11.4486 4.36918 8.8939
122 1 11.7791 3.7662 6.22739
125 1 10.4313 4.01175 6.05778
163 1 9.44619 5.61201 9.18789
113 1 9.86272 3.82653 11.855
132 1 11.2015 3.12199 9.46298
143 1 9.41135 6.11047 2.82495
168 1 11.139 7.60473 0.563201
149 1 9.69535 7.6531 5.41856
152 1 10.827 7.13612 6.19421
159 1 9.168 7.09184 8.9772
158 1 11.2905 7.02504 10.2119
164 1 10.4181 7.84684 9.49228
79 1 11.2299 6.74242 11.5198
172 1 10.0074 10.0659 4.56232
173 1 11.0291 10.7553 5.07982
175 1 9.42791 9.05859 5.30838
179 1 9.28849 10.6904 3.58403
182 1 11.2861 9.8532 8.11419
186 1 11.4828 11.032 7.29613
176 1 11.9937 10.5963 6.03074
187 1 10.2157 9.88624 10.5578
190 1 10.9942 11.1135 10.7664
183 1 10.5117 9.3033 9.2034
191 1 9.03 9.33326 11.045
ITEM: TIMESTEP
2000
ITEM: NUMBER OF ATOMS
191
ITEM: BOX BOUNDS pp pp pp
-1.1172538826990462e-01 1.2111725388269889e+01
-1.1172538826990462e-01 1.2111725388269889e+01
-1.1172538826990462e-01 1.2111725388269889e+01
ITEM: ATOMS id type x y z
4 1 1.93465 2.65651 1.64807
12 1 1.08167 0.805774 4.77325
118 1 0.090487 0.456851 3.83064
31 1 2.63087 0.827826 8.6827
32 1 1.152 0.686625 8.66392
11 1 0.55521 0.827765 7.26346
17 1 2.52648 2.15848 6.14104
13 1 1.29879 1.33049 6.13975
28 1 0.141871 0.850459 9.61509
29 1 0.236101 2.23698 10.2556
30 1 1.26083 2.49856 11.2338
38 1 2.48913 1.83959 10.9523
36 1 2.91565 0.6346 11.567
7 1 0.480066 4.7256 1.47265
6 1 1.09686 3.71387 0.91057
45 1 1.11985 5.73455 2.07049
14 1 2.18887 3.58625 6.65695
22 1 0.761027 3.90031 7.12304
63 1 0.63509 4.7901 8.26803
34 1 1.4307 3.7335 11.8159
64 1 1.72944 4.80971 10.9593
66 1 1.47818 4.55413 9.53802
39 1 0.271953 8.61022 0.815037
43 1 2.52847 8.22001 0.6542
42 1 1.41866 8.11146 1.58058
41 1 1.64144 7.77394 2.85495
54 1 2.55227 6.63172 5.34276
50 1 2.13928 8.81604 3.79819
52 1 0.986024 6.32276 5.49629
40 1 1.07382 6.57325 3.13407
60 1 2.73601 7.9639 4.95496
53 1 0.335152 6.14739 4.27042
108 1 1.46947 8.42165 8.65232
67 1 1.62968 7.02221 8.39958
71 1 0.7271 6.20005 7.86212
59 1 0.0701342 6.5141 6.64179
109 1 0.287505 8.9501 8.25048
77 1 1.98039 6.15269 11.5368
76 1 2.05369 7.58767 11.6747
75 1 1.44349 8.82474 11.045
107 1 1.88184 8.97067 9.76045
89 1 0.977893 10.7922 0.589167
84 1 1.44715 10.7027 1.97758
80 1 0.71983 9.61538 -0.150168
96 1 1.3106 10.7051 5.51837
21 1 1.97919 11.839 4.9375
83 1 2.28267 10.0882 3.10343
176 1 -0.101833 10.5679 5.89794
3 1 5.42086 1.23439 1.58074
1 1 4.18141 1.76807 1.58427
5 1 3.24167 2.59071 2.18657
16 1 4.20067 0.165703 5.38009
18 1 3.90103 1.46558 5.89632
9 1 5.5832 2.86873 7.33596
24 1 5.4888 2.3883 8.79025
10 1 4.96466 2.00791 6.47369
26 1 5.71369 0.965725 8.94232
25 1 3.18898 1.91949 9.6497
27 1 4.29942 2.94067 9.30319
48 1 4.13358 5.24467 0.641985
44 1 5.6487 5.27305 2.66024
46 1 4.40242 4.8339 1.94873
8 1 3.61271 3.85519 2.6384
51 1 3.65015 5.68453 5.75241
56 1 5.17653 5.77956 5.6575
70 1 3.54006 5.28364 8.12243
57 1 3.06485 4.69366 6.77653
78 1 4.80981 4.82172 11.714
37 1 5.81151 3.84441 11.7278
69 1 4.67351 5.26911 10.3575
68 1 3.94485 4.42583 9.25868
47 1 5.09228 7.71274 2.35817
82 1 4.65861 8.7257 1.38055
92 1 5.00472 8.42373 3.73707
55 1 5.85793 7.01347 5.61915
73 1 4.1854 7.63756 8.4125
62 1 5.53983 7.45593 7.98252
61 1 5.75218 8.12366 6.70461
65 1 3.00614 6.65303 8.24316
72 1 5.40208 6.46914 10.1981
81 1 5.53 7.62447 10.9859
102 1 4.27427 8.91433 9.1477
88 1 3.73282 11.2239 1.72608
91 1 5.78712 9.61974 1.0464
85 1 3.56091 10.6249 0.456972
90 1 3.47964 9.12986 0.737809
94 1 5.60818 11.8064 5.37742
97 1 5.49871 10.351 5.21864
20 1 3.28556 11.7924 4.38693
95 1 5.62401 9.74681 3.99053
87 1 3.31605 11.1996 3.09333
93 1 5.34659 9.59756 6.58055
100 1 5.25328 10.6583 7.78198
101 1 5.45485 9.72828 8.87413
33 1 3.49877 11.9643 8.98944
106 1 4.83604 12.0809 8.45521
98 1 3.24313 11.025 10.0506
103 1 3.21301 11.4569 11.5573
99 1 3.19915 9.63144 9.77724
114 1 8.65481 2.02287 0.570016
2 1 6.48208 1.08366 2.32233
15 1 6.82633 0.111528 4.91685
19 1 6.89594 0.771363 3.60988
123 1 9.00482 1.17303 5.41708
121 1 8.07212 0.113707 5.72923
129 1 8.04907 0.325506 9.53542
130 1 8.02584 2.59266 11.5489
137 1 6.6656 0.477093 10.0583
134 1 6.72998 2.79687 11.0551
147 1 8.00873 4.84754 2.49363
141 1 6.66828 4.4834 3.19907
150 1 8.22785 3.9417 4.81962
156 1 6.86539 4.2491 4.62293
58 1 6.00704 4.54315 5.75894
151 1 8.50316 5.19849 7.06922
166 1 7.40733 4.41316 7.75579
23 1 6.19201 4.02914 7.0654
167 1 7.55759 3.87402 9.02271
165 1 8.47747 4.58977 9.87944
35 1 6.6026 3.03179 9.56739
171 1 7.87166 8.47334 1.58855
140 1 7.70865 7.75298 0.360675
142 1 8.29817 7.58988 2.64454
145 1 7.08131 6.60962 0.714208
49 1 6.11519 6.60863 2.27525
144 1 7.22488 7.14426 3.31779
148 1 7.19428 6.91277 4.77011
154 1 8.36687 6.97849 5.5241
153 1 8.36853 6.56376 6.80878
162 1 8.4001 7.6294 7.75929
184 1 8.48865 9.02832 7.64472
159 1 8.96604 7.05718 8.98178
188 1 7.79237 8.38201 11.1693
160 1 7.64327 7.2737 9.78123
74 1 6.36381 6.80512 9.14479
110 1 6.49558 9.0116 10.8897
169 1 6.89007 9.46308 1.94422
174 1 7.8876 10.7043 3.66822
170 1 6.73696 10.0192 3.20926
177 1 8.97007 9.69668 6.38472
178 1 8.81445 11.0982 6.41351
180 1 7.91921 9.89888 8.75968
181 1 8.26077 11.3394 8.7556
104 1 6.72022 9.58377 9.5682
191 1 9.00887 9.54882 10.8724
86 1 6.05653 10.0701 11.9415
115 1 10.6953 1.55822 2.15093
112 1 9.80668 1.58188 1.04827
116 1 11.9029 0.897853 2.56465
111 1 10.0977 2.16903 3.34325
120 1 10.0424 1.26677 4.4817
126 1 11.0768 0.180714 4.52905
127 1 10.0795 0.631858 8.06083
189 1 11.4207 0.0692287 7.45889
135 1 9.94498 2.60679 9.86096
131 1 9.23424 1.23836 9.23856
105 1 11.3272 0.0708892 10.2111
119 1 10.0589 4.80321 1.07982
117 1 11.3566 4.50976 1.81424
139 1 9.14925 5.52402 1.87279
157 1 11.2245 5.7683 3.8952
124 1 9.60682 3.6521 4.99287
128 1 10.3074 3.43167 3.7957
146 1 11.071 4.4806 3.20316
161 1 10.3275 5.06771 8.35413
155 1 9.81958 4.76238 7.05533
122 1 11.8865 3.81297 6.34927
125 1 10.4933 4.02723 6.07036
133 1 11.3825 4.25254 8.84462
163 1 9.36175 5.55426 9.20379
113 1 9.7762 4.28872 11.9619
136 1 9.12849 3.44972 10.8261
132 1 11.3337 3.01741 9.57949
143 1 9.36198 6.65115 2.68711
168 1 11.464 7.61875 0.621061
149 1 9.9536 7.58939 5.1331
138 1 10.1371 6.69375 3.82404
152 1 11.1181 7.18228 6.13041
158 1 10.9522 7.14221 10.4985
164 1 10.3419 7.86805 9.4217
79 1 10.9592 7.09909 11.8353
172 1 10.3366 10.0851 4.41615
173 1 11.1707 11.0219 4.97972
179 1 9.27377 10.5434 3.70182
175 1 9.76276 9.05669 5.26808
182 1 11.4964 9.8871 8.23116
186 1 11.5853 10.9275 7.27497
185 1 9.16506 11.7124 7.70403
183 1 10.5021 9.30803 9.04827
187 1 10.1202 9.95732 10.2027
190 1 10.5074 11.2629 10.4592
ITEM: TIMESTEP
3000
ITEM: NUMBER OF ATOMS
191
ITEM: BOX BOUNDS pp pp pp
-2.1271681481848559e-01 1.2212716814818522e+01
-2.1271681481848559e-01 1.2212716814818522e+01
-2.1271681481848559e-01 1.2212716814818522e+01
ITEM: ATOMS id type x y z
4 1 1.64599 2.72485 1.4111
12 1 0.891728 0.496606 4.77287
118 1 -0.130095 0.694384 3.83243
31 1 2.79017 0.759932 8.82331
32 1 1.3503 0.43139 8.63529
11 1 0.596279 0.549204 7.30131
17 1 2.46507 1.72203 6.37376
13 1 1.31414 0.963405 6.08677
28 1 0.440924 0.614313 9.78604
29 1 0.326219 2.10045 10.2533
30 1 1.41053 2.5193 11.1636
38 1 2.55882 1.71833 10.9497
36 1 2.59661 0.246867 11.5351
7 1 0.0797386 4.47773 1.46866
6 1 0.884683 3.69941 0.680892
45 1 0.856722 5.54981 2.11812
5 1 2.82272 2.90501 2.095
14 1 2.03271 3.30222 6.51865
22 1 0.85069 3.77033 7.23299
63 1 0.682975 4.71605 8.55295
34 1 1.30198 3.7541 11.805
64 1 1.59608 4.89976 11.1128
66 1 1.78045 4.81865 9.68558
41 1 1.58334 7.68815 2.70266
39 1 0.21487 8.22096 0.786234
42 1 1.47589 7.98252 1.43797
43 1 2.64103 8.08226 0.653835
54 1 2.27541 6.57524 5.25225
50 1 2.25363 8.6978 3.53122
52 1 0.834897 6.29475 5.50944
60 1 2.53541 7.89488 4.63858
53 1 0.0818183 6.43526 4.22239
40 1 0.756602 6.60772 3.03491
108 1 1.31933 8.43564 8.80306
67 1 1.7755 7.17229 8.48644
71 1 0.786596 6.18264 8.00273
59 1 0.157681 6.44443 6.74761
77 1 1.99322 6.16581 11.7886
76 1 2.44863 7.47479 11.8035
75 1 1.44997 8.51056 11.2447
107 1 1.8013 8.99474 9.92003
89 1 0.717887 10.5456 0.647575
84 1 1.03126 10.4483 1.91637
80 1 0.718599 9.24289 -0.181703
21 1 1.69277 11.6138 4.65463
96 1 1.00652 10.5692 5.37167
83 1 2.14271 10.0154 2.91074
109 1 0.414462 9.14859 8.02205
1 1 3.79224 1.92251 2.19324
3 1 5.00605 1.57534 2.71964
16 1 3.97172 0.058412 5.27093
2 1 5.65235 1.91098 3.78956
18 1 3.84841 1.3378 6.08809
24 1 5.49762 2.80186 8.71956
10 1 5.10466 2.08064 6.20627
25 1 3.3426 1.99088 9.59393
48 1 4.51003 5.14197 0.51675
8 1 3.46935 4.0624 2.48904
46 1 4.50089 4.81685 1.96008
44 1 5.65214 5.44738 2.66076
51 1 3.47605 5.68886 5.5658
57 1 2.99951 4.34781 5.75792
56 1 5.04801 5.9134 5.50499
9 1 5.59716 2.92344 7.25234
78 1 5.12205 4.45433 11.8593
68 1 4.15902 4.59059 9.74475
69 1 5.18674 5.13469 10.6736
37 1 5.65347 3.17104 11.7507
27 1 4.33638 3.10944 9.46283
70 1 3.1 5.35777 9.18929
47 1 5.07419 7.94392 2.2658
82 1 4.9337 8.79205 1.08262
49 1 5.96026 6.84255 2.22472
92 1 4.90918 8.68113 3.56161
55 1 5.76222 7.24601 5.42828
73 1 4.28756 7.53517 8.73557
62 1 5.51779 7.43421 8.11261
61 1 5.71286 8.15716 6.58927
65 1 3.10419 6.6307 8.72875
72 1 5.80972 6.45867 10.49
81 1 5.56048 7.86605 10.9862
102 1 4.16115 9.02175 9.31437
88 1 3.85676 11.3333 1.61562
90 1 3.69598 9.1474 0.55224
85 1 3.62688 10.6729 0.27036
91 1 5.98122 9.77491 0.748567
94 1 5.27246 11.8175 5.41678
97 1 5.51197 10.4158 5.25665
95 1 5.73694 9.83655 3.93807
20 1 3.08018 11.8115 4.22456
87 1 3.21846 11.0429 2.97615
93 1 5.51787 9.6752 6.4322
100 1 5.11953 10.3937 7.61944
106 1 4.79158 11.8233 8.26162
101 1 5.33865 9.66229 8.91751
33 1 3.53883 12.018 9.00388
98 1 3.16513 11.1218 10.0767
99 1 2.95957 9.72942 9.82204
103 1 3.05781 11.4162 11.5335
114 1 8.93304 1.98249 0.145
15 1 6.50587 0.176318 5.38624
123 1 8.72991 0.789739 4.72403
19 1 6.04401 1.60825 5.10163
121 1 7.92285 -0.204809 5.27524
26 1 6.06742 0.128308 8.21881
130 1 8.02476 2.61233 11.6856
134 1 6.80853 2.60629 11.1273
129 1 8.38432 0.125889 9.30441
137 1 6.96419 0.442861 9.19754
147 1 7.85492 4.65998 2.41237
139 1 8.99239 5.5043 2.11119
141 1 6.79085 4.66991 3.27111
150 1 8.29171 3.77957 5.03714
156 1 7.02584 4.36336 4.67405
58 1 6.03833 4.88474 5.73307
151 1 8.5324 5.25838 7.1761
166 1 7.40868 4.55294 7.86074
23 1 6.43826 4.08167 6.91975
165 1 8.60417 4.50816 10.0503
136 1 8.89446 3.93084 11.2622
35 1 6.5832 3.10163 9.63397
167 1 7.41716 4.08645 9.26522
171 1 7.91153 8.67393 1.38927
140 1 7.62344 7.83824 0.335421
142 1 8.29801 7.87174 2.49026
145 1 6.75233 6.83098 0.758783
144 1 7.09057 7.35414 3.24525
148 1 7.04719 7.38983 4.7065
154 1 8.21137 7.04132 5.4431
153 1 8.36408 6.53417 6.85314
162 1 8.44274 7.65488 7.81651
184 1 8.26783 9.08576 7.68968
159 1 9.05745 7.17054 9.07493
188 1 7.92411 8.44024 11.1035
160 1 7.90077 7.38085 9.92801
74 1 6.71571 6.80948 9.37928
169 1 6.99252 9.72291 1.64581
174 1 8.01365 10.9931 3.16702
170 1 6.85406 10.2323 2.93558
177 1 8.87219 9.69268 6.42054
181 1 8.56241 11.2531 8.64095
180 1 7.89291 10.0127 8.72023
178 1 8.53745 11.1727 6.30926
104 1 6.69801 9.73723 9.48693
191 1 9.06645 9.55298 10.917
86 1 6.29358 10.038 11.8457
110 1 6.63122 9.1658 10.7809
115 1 10.5581 1.91209 2.23491
112 1 9.94205 1.67626 0.950192
116 1 11.9678 1.25967 2.53907
111 1 10.1521 2.29507 3.6036
120 1 9.95661 1.04494 4.26255
126 1 11.0869 0.00995782 4.23382
127 1 10.2934 0.401092 7.84879
131 1 9.65789 1.04995 8.93149
189 1 11.605 0.0501754 7.40852
135 1 10.4859 1.95882 9.60704
132 1 11.6135 2.70182 9.71182
119 1 9.87479 4.74834 1.16775
117 1 11.2045 4.54009 1.94524
113 1 9.71211 4.39614 -0.143326
146 1 11.0251 4.60056 3.39111
124 1 9.73855 3.81167 5.21311
128 1 10.4136 3.55165 4.07959
157 1 11.1463 5.95768 3.97586
161 1 10.5617 4.75148 8.75176
155 1 9.88837 4.64478 7.33739
122 1 11.8893 3.43258 6.65621
125 1 10.5651 3.95064 6.363
133 1 11.6834 3.97343 9.09441
163 1 9.52235 5.63788 9.38793
143 1 9.26351 6.84186 2.68628
168 1 11.759 7.33684 0.358855
149 1 9.45614 7.6823 5.04895
138 1 10.0261 6.91608 3.95559
175 1 9.58163 9.06315 5.36605
152 1 11.4563 7.2603 6.61367
158 1 11.0527 7.62223 10.4309
164 1 10.3146 8.0372 9.32694
79 1 11.4445 7.09593 11.5347
172 1 9.97954 10.0118 4.3192
173 1 11.1521 10.9753 4.5707
176 1 12.025 10.6104 5.71453
179 1 9.30093 10.3733 3.13726
182 1 11.6178 9.86998 8.03947
186 1 11.631 10.9988 7.08935
185 1 9.22577 11.775 7.37191
183 1 10.5795 9.36983 9.01257
187 1 10.1595 10.1384 10.149
190 1 11.1954 11.0586 10.5257
105 1 12.094 12.0969 10.3657
ITEM: TIMESTEP
4000
ITEM: NUMBER OF ATOMS
191
ITEM: BOX BOUNDS pp pp pp
-1.8150969249058993e-01 1.2181509692490605e+01
-1.8150969249058993e-01 1.2181509692490605e+01
-1.8150969249058993e-01 1.2181509692490605e+01
ITEM: ATOMS id type x y z
12 1 1.07053 0.609928 4.94818
118 1 -0.0703823 0.654567 4.12629
31 1 2.82387 0.671929 8.90636
32 1 1.36985 0.698186 8.68509
11 1 0.515395 0.562081 7.4494
13 1 1.1502 1.23738 6.22498
17 1 2.50393 2.06258 6.33934
28 1 0.509256 0.62159 9.92628
29 1 0.311945 2.05671 10.1848
30 1 1.28036 2.5855 10.976
38 1 2.5206 1.78824 10.9552
36 1 2.756 0.465342 11.6202
7 1 0.256982 4.66537 1.32898
6 1 1.14811 3.84297 0.642584
45 1 0.953658 5.69573 1.84114
4 1 1.9429 3.07141 1.48027
14 1 2.20144 3.52378 6.46316
22 1 0.814943 3.80765 6.89774
63 1 0.560519 4.77746 8.32075
34 1 1.23737 3.80594 11.6404
64 1 1.47745 4.93164 10.8577
66 1 1.57584 4.74083 9.43509
41 1 1.46353 7.82811 2.65858
39 1 0.133861 8.15249 0.773475
42 1 1.37768 8.18537 1.36979
43 1 2.40209 8.27164 0.433934
54 1 2.40808 6.84185 5.09837
50 1 1.85793 8.77698 3.59762
52 1 1.07001 6.38907 5.22272
53 1 0.274226 6.22355 3.99593
40 1 1.06141 6.60355 2.86588
60 1 2.54992 8.22725 4.75717
108 1 1.35794 8.33172 8.46761
67 1 1.91636 7.02191 8.23177
109 1 0.159506 8.70919 7.82682
59 1 0.463188 6.64052 6.41361
71 1 1.0329 6.03169 7.68134
77 1 1.6984 6.32357 11.3403
76 1 1.81638 7.75503 11.4979
75 1 1.17332 8.74384 10.8704
107 1 1.78738 9.04941 9.63013
89 1 0.531688 10.5068 0.674953
84 1 0.891241 10.4781 1.94951
21 1 1.70547 11.7371 5.05257
96 1 1.01609 10.6826 5.63411
83 1 1.78345 10.1287 3.11435
80 1 0.299195 9.37047 12.02
1 1 4.01143 2.15353 2.55199
16 1 3.97823 -0.0146415 5.26408
18 1 3.82829 1.28578 6.0259
3 1 5.13157 1.74642 3.18621
26 1 5.80991 0.016097 8.34348
10 1 5.11361 2.06161 6.20517
24 1 5.54246 2.74813 8.72223
25 1 3.27743 1.86628 9.55243
48 1 4.55182 4.57003 0.648685
8 1 3.51262 4.35816 2.71451
46 1 4.41294 5.02521 1.99535
44 1 5.69514 5.37991 2.55848
5 1 3.11469 3.08325 2.36847
51 1 3.58022 5.87789 5.48036
58 1 6.10215 4.95176 5.70411
70 1 2.93376 5.05239 9.00356
9 1 5.64295 2.93458 7.26666
57 1 3.09482 4.65367 6.11213
78 1 4.75204 3.93718 11.8489
68 1 4.051 4.44569 9.50317
69 1 4.7779 4.91406 10.669
37 1 5.80672 2.91631 11.781
27 1 4.10033 2.91424 9.22305
47 1 4.93419 8.06551 2.06664
82 1 4.68118 8.97608 1.05378
92 1 5.20129 8.67338 3.34852
55 1 5.8199 7.11554 5.42422
56 1 5.06176 5.89792 5.61027
65 1 3.15235 6.64519 8.72893
62 1 5.6614 7.29727 8.27202
61 1 5.59184 7.97568 6.73369
73 1 4.21154 7.50879 8.64003
72 1 5.7997 6.00485 10.6888
102 1 4.22346 8.76916 9.25896
88 1 3.38852 11.3534 1.79124
90 1 3.43704 9.30398 0.474482
85 1 3.34549 10.732 0.535013
91 1 5.904 9.72814 0.734727
94 1 5.39794 11.6649 5.32831
97 1 5.59329 10.1894 5.10175
20 1 2.98358 11.8062 4.37871
87 1 2.98751 11.0376 3.1018
93 1 5.28399 9.41678 6.42446
100 1 4.89449 10.2453 7.55176
106 1 4.64683 11.5584 8.06525
101 1 5.31282 9.56694 8.75971
33 1 3.58607 11.7242 9.07674
98 1 3.20373 10.9571 10.1714
103 1 3.14765 11.294 11.6392
99 1 3.11591 9.58862 9.78888
114 1 8.94758 1.93536 0.241388
15 1 6.50919 0.130962 5.67753
123 1 8.81105 0.766735 5.03867
2 1 6.1857 1.67635 3.98985
19 1 6.20603 1.4735 5.39764
121 1 7.85555 -0.222332 5.6542
129 1 8.27871 0.245276 9.34764
134 1 6.96968 2.70983 11.0304
130 1 8.2281 2.82648 11.6744
137 1 6.81532 0.519773 9.10608
147 1 8.06895 4.90069 2.44333
139 1 9.18458 5.59631 1.86427
141 1 6.77809 4.63978 3.22036
150 1 8.23071 4.08744 5.18891
156 1 6.97063 4.49118 4.66609
151 1 8.61519 5.26658 7.21008
166 1 7.43432 4.54859 7.78212
23 1 6.24711 4.22117 7.0065
167 1 7.6285 4.1314 9.24037
165 1 8.54343 4.65666 10.1376
136 1 8.93182 3.99372 11.3208
35 1 6.82846 2.99377 9.59622
171 1 8.04657 8.79873 1.36392
140 1 7.71347 8.05706 0.215976
142 1 8.37429 7.9168 2.39339
145 1 6.93094 6.93378 0.690277
49 1 6.07061 6.86402 2.14623
144 1 7.09221 7.54257 3.28283
148 1 7.06306 7.34156 4.69161
154 1 8.30173 6.95892 5.35458
153 1 8.38215 6.63408 6.79624
162 1 8.36022 7.70562 7.84781
159 1 8.84515 7.47173 9.141
188 1 7.93182 8.53018 11.244
160 1 7.80847 7.53125 10.1501
74 1 6.31981 6.90299 9.74403
81 1 6.27493 6.10628 11.976
169 1 7.04131 9.81756 1.60635
174 1 8.03978 10.9856 3.1898
170 1 6.92542 10.229 2.91523
95 1 5.93582 9.71292 3.8567
178 1 8.58744 11.0687 6.32558
181 1 8.46519 11.34 8.63727
180 1 7.76363 9.96049 8.37233
177 1 8.5782 9.60535 6.18464
184 1 8.26913 8.99953 7.49251
104 1 6.68158 9.77809 9.35763
86 1 6.11656 10.4404 11.828
110 1 6.81925 10.0391 10.7543
115 1 10.6557 1.36983 2.25652
112 1 9.91072 1.38031 1.10361
116 1 11.9028 0.906097 2.69022
111 1 10.1577 1.94509 3.44716
120 1 10.1358 1.06296 4.52452
126 1 11.1553 0.105146 4.82769
127 1 10.2182 0.183133 7.92851
131 1 9.54023 0.91589 8.95186
189 1 11.5918 -0.0377734 7.5363
135 1 10.2903 2.11495 9.4633
132 1 11.5866 2.7984 9.60199
119 1 10.0841 4.95894 1.01316
117 1 11.1994 4.5401 1.68406
146 1 10.9544 4.46546 3.10804
124 1 9.62914 3.82722 5.01365
128 1 10.267 3.36607 3.76185
157 1 11.2401 5.76109 3.81321
161 1 10.4859 4.83173 8.51022
155 1 10.0039 4.83569 7.19183
122 1 12.0374 3.80933 6.08509
125 1 10.6427 4.13523 6.03433
133 1 11.6746 4.11346 8.90127
163 1 9.60654 5.29117 9.51857
113 1 10.1327 4.80246 12.0186
143 1 9.29488 6.86853 2.5026
168 1 11.6186 7.26702 0.292026
149 1 9.49345 7.65028 4.85158
138 1 10.0437 6.82835 3.75122
175 1 9.51665 9.07291 5.16038
152 1 12.0368 7.77434 6.79937
158 1 10.9087 7.0034 10.1783
164 1 10.2065 7.75488 9.39067
79 1 11.182 6.91106 11.4621
172 1 10.1893 10.1286 4.41107
173 1 11.1399 10.9841 4.9717
179 1 9.28893 10.6956 3.54512
182 1 11.6328 9.66154 8.26537
186 1 11.6417 10.8648 7.42348
185 1 9.30856 11.6219 7.38448
176 1 12.0561 10.5261 6.02529
187 1 10.3386 10.0288 10.5334
190 1 11.0499 11.3323 10.9368
105 1 12.1784 12.0695 10.7609
183 1 10.7827 9.19271 9.41045
191 1 9.19403 9.30824 11.2566
ITEM: TIMESTEP
5000
ITEM: NUMBER OF ATOMS
191
ITEM: BOX BOUNDS pp pp pp
-1.2958007458774434e-01 1.2129580074587748e+01
-1.2958007458774434e-01 1.2129580074587748e+01
-1.2958007458774434e-01 1.2129580074587748e+01
ITEM: ATOMS id type x y z
4 1 1.69274 2.85962 1.73316
116 1 -0.0266065 1.19501 2.68449
12 1 1.10691 0.239226 4.92779
118 1 0.125708 0.466191 3.94667
17 1 2.61095 1.94257 6.01763
31 1 2.80779 0.939637 8.73749
32 1 1.39422 0.612315 8.68112
11 1 0.676794 0.692979 7.39326
13 1 1.39721 1.09696 6.08207
28 1 0.5147 0.764298 9.84988
29 1 0.311192 2.05185 10.199
30 1 1.43147 2.73946 10.9132
38 1 2.67773 2.08945 10.8028
7 1 0.114652 4.60322 1.50813
6 1 0.962756 3.66555 0.855359
45 1 0.681572 5.79787 1.89675
14 1 2.06733 3.39661 6.00792
63 1 0.801161 5.0344 8.68534
22 1 0.736242 3.44869 6.06904
34 1 1.33748 3.82688 11.6795
64 1 1.61794 5.11154 11.0463
66 1 1.82263 5.03396 9.57173
43 1 2.46918 8.26447 0.755985
39 1 0.0715768 8.30397 0.930056
42 1 1.29316 8.21777 1.68907
54 1 2.41187 6.67733 5.21955
50 1 2.17532 8.59496 3.65099
52 1 1.03402 6.31805 5.47008
53 1 0.219121 6.11728 4.2577
40 1 0.84141 6.51049 3.08336
60 1 2.64252 8.11863 4.9204
41 1 1.40035 7.7357 2.94395
108 1 1.41654 8.60222 8.48715
67 1 1.98409 7.25433 8.19531
109 1 0.199232 8.80543 7.87554
59 1 0.372627 6.51791 6.63718
71 1 0.883255 6.08688 7.83781
77 1 1.94038 6.32531 11.6836
76 1 2.08391 7.72658 11.6596
75 1 1.30687 8.85784 11.0483
89 1 0.544431 10.6135 0.895727
84 1 0.941726 10.3644 2.30259
80 1 0.354215 9.54726 -0.0631739
21 1 1.88948 11.1832 4.98638
96 1 1.0787 10.2045 5.45207
83 1 2.06734 9.84722 3.14817
107 1 1.78755 9.18599 9.72314
1 1 4.01037 1.81454 1.94871
5 1 3.0201 2.72839 2.25743
3 1 5.36357 1.61093 2.45644
16 1 4.0328 0.103791 5.14863
2 1 5.83026 1.83018 3.78449
18 1 3.92223 1.35435 5.81897
26 1 5.93235 0.398057 8.44286
10 1 5.1126 2.05453 6.04161
24 1 5.5753 2.63168 8.57494
9 1 5.76346 2.68525 7.1469
25 1 3.35404 2.12959 9.46057
36 1 3.06277 0.894016 11.485
48 1 4.74495 4.69249 0.528773
46 1 4.46544 4.7414 1.8929
8 1 3.58922 4.01889 2.57686
44 1 5.45533 5.4543 2.60066
51 1 3.53795 5.61353 5.77031
58 1 5.99112 4.77833 5.62305
56 1 4.99608 5.77132 5.59835
27 1 4.2698 2.994 8.98969
70 1 3.12662 5.30831 8.94874
57 1 2.96984 4.4157 6.08523
72 1 5.86867 5.94232 10.3541
68 1 4.10646 4.43103 9.35499
69 1 5.00933 4.76015 10.3973
78 1 5.25603 4.04075 11.745
47 1 4.96682 8.15003 2.42377
82 1 4.87663 8.7508 1.06009
49 1 5.58191 6.88702 2.84459
55 1 5.59552 7.05432 5.65098
92 1 4.76501 8.98207 3.5524
61 1 5.46029 7.91843 6.84473
62 1 5.50219 7.41883 8.27374
73 1 4.20125 7.6324 8.97879
65 1 3.19263 6.74849 8.68639
102 1 4.19229 9.00877 9.50722
88 1 3.49055 11.4423 1.8381
85 1 3.42447 10.7824 0.547287
90 1 3.48811 9.21181 0.60304
91 1 5.91882 9.73391 0.796895
94 1 5.29347 11.6864 5.3586
97 1 5.49205 10.2515 5.33363
95 1 5.84482 9.69391 3.99664
20 1 3.16399 11.5992 4.34782
87 1 3.17753 10.9129 3.18025
93 1 5.20141 9.52165 6.58683
100 1 4.89347 10.4023 7.8325
106 1 4.77769 11.7745 8.3107
33 1 3.5174 12.0078 9.00491
101 1 5.29257 9.78 9.00807
98 1 3.20419 11.0253 10.0313
103 1 3.28984 11.4944 11.4152
99 1 3.03121 9.69406 9.76995
86 1 5.78004 10.2604 11.7901
15 1 6.52651 0.26104 5.56886
123 1 8.68491 0.901397 4.92323
19 1 6.1541 1.67567 5.14452
121 1 7.89971 -0.0191344 5.68821
134 1 7.17172 2.51565 10.7827
130 1 8.49393 2.55622 11.4069
37 1 6.13696 2.85877 11.6272
137 1 6.95636 0.7607 9.1525
129 1 8.28714 0.471556 9.41832
147 1 7.71342 4.56308 2.3898
139 1 8.86463 5.3224 2.09797
141 1 6.56998 4.65632 3.15286
150 1 8.30274 3.90096 4.70685
156 1 6.87431 4.3528 4.56617
151 1 8.51746 5.53769 7.12547
166 1 7.48915 4.68041 7.63122
23 1 6.38414 4.09369 6.85611
167 1 7.83233 4.04782 9.03432
165 1 8.93817 4.68066 9.91322
35 1 6.8884 3.01982 9.44772
81 1 6.52886 5.91623 11.7642
171 1 7.6538 8.31974 1.5233
140 1 7.88595 7.80214 0.254683
142 1 7.84772 7.43977 2.62592
145 1 7.51328 6.45151 0.0679098
144 1 6.83734 7.178 3.49283
148 1 6.73474 7.19571 4.93613
154 1 8.04446 7.15758 5.47096
153 1 8.3144 6.85918 6.86126
162 1 8.23009 7.99009 7.67143
159 1 8.68356 7.73579 8.98184
188 1 8.17289 8.55499 11.3752
160 1 7.6323 7.75009 9.89645
74 1 6.42072 6.96691 9.44239
169 1 6.92569 9.48642 1.73453
174 1 7.97776 10.928 3.21469
170 1 6.84486 10.1914 3.05556
178 1 8.80113 11.3462 6.3609
181 1 8.41761 11.4871 8.6543
180 1 7.58793 10.2905 8.46366
184 1 7.97366 9.35096 7.35922
177 1 8.72902 9.84643 6.14545
104 1 6.57474 10.035 9.41897
110 1 6.65209 10.4384 10.7726
115 1 10.9869 1.80163 2.31159
112 1 10.1746 1.59251 1.00438
114 1 9.24496 1.54913 -0.052605
111 1 10.1788 2.16265 3.47427
120 1 9.93596 1.0494 4.25542
126 1 11.068 -0.0871872 4.35424
127 1 10.4054 0.319497 7.96284
131 1 9.54967 1.22828 8.97108
189 1 11.6833 -0.0875872 7.52856
135 1 10.2037 2.32933 9.38983
105 1 11.9166 -0.0899602 10.4167
119 1 9.89507 4.69806 1.40851
117 1 11.0843 4.51492 2.12213
113 1 9.71549 4.51285 0.0258738
146 1 10.9678 4.4936 3.52628
124 1 9.58235 3.67201 5.16659
128 1 10.4057 3.36167 4.07686
157 1 11.1017 5.75347 4.25088
161 1 10.7295 4.91822 8.45484
155 1 9.95172 5.02477 7.20546
133 1 11.8592 4.17759 8.80344
125 1 10.3913 4.02394 6.29518
122 1 11.7392 3.46332 6.29934
163 1 10.0846 5.44446 9.5481
132 1 11.6047 2.90811 9.47571
136 1 9.17709 3.95553 11.0977
168 1 11.647 7.4032 0.169995
143 1 9.10155 6.65701 2.71607
149 1 9.25489 7.57355 4.89933
138 1 9.91125 6.66496 3.99084
152 1 12.0509 7.80325 6.92955
158 1 10.449 6.64318 10.0834
164 1 10.0183 7.87386 9.32263
79 1 10.8468 6.90851 11.4064
172 1 10.089 10.0423 4.26086
173 1 11.0532 10.8577 4.8356
175 1 9.39004 9.02886 5.03672
179 1 9.24751 10.5021 3.28112
176 1 12.0268 10.4635 5.84644
182 1 11.5592 9.70734 8.22857
186 1 11.6549 10.8212 7.2315
185 1 9.36314 11.6213 7.60951
187 1 10.2811 10.0559 10.361
190 1 11.1472 11.1796 10.5722
183 1 10.6011 9.29421 9.18252
191 1 9.33255 9.43138 11.3185
ITEM: TIMESTEP
6000
ITEM: NUMBER OF ATOMS
191
ITEM: BOX BOUNDS pp pp pp
-1.5713151250215202e-01 1.2157131512502135e+01
-1.5713151250215202e-01 1.2157131512502135e+01
-1.5713151250215202e-01 1.2157131512502135e+01
ITEM: ATOMS id type x y z
4 1 1.78838 2.75626 1.35594
12 1 1.1649 0.533302 4.74381
118 1 -0.0401539 0.715769 3.92636
13 1 1.39929 1.1056 5.99884
17 1 2.47287 2.04406 6.11898
32 1 1.39421 0.565428 8.40197
11 1 0.624145 0.617622 7.18477
31 1 2.85559 0.933487 8.66066
28 1 0.5161 0.618465 9.5803
29 1 0.406397 2.02371 10.0099
30 1 1.43904 2.48918 10.9871
38 1 2.76887 1.87893 11.0271
7 1 0.167611 4.42547 1.5074
6 1 0.933498 3.51267 0.637216
45 1 1.03433 5.42763 2.00859
22 1 0.818894 3.71445 5.93866
63 1 0.787998 4.84257 8.57742