LAMMPS data file via write_data, version 8 Apr 2021, timestep = 6000

191 atoms
1 atom types

-0.16223272063292327 12.162232720632815 xlo xhi
-0.16223272063292327 12.162232720632815 ylo yhi
-0.16223272063292327 12.162232720632815 zlo zhi

Masses

1 12.0107

Atoms # atomic

5 1 2.804342925859908 2.852904225852735 1.901258060715712 0 0 0
12 1 1.1198802777382002 0.4528166721154651 4.8721955163620745 0 0 0
118 1 0.17241189053073452 0.5852129122636883 3.8281482038602235 1 0 0
11 1 0.5796268526250505 0.765100886574899 7.4221899134650995 0 0 0
32 1 1.4920308080757179 0.7049078177246131 8.50653123113126 0 0 0
31 1 2.833358732039783 0.9262587592817682 8.72610417372708 0 0 0
17 1 2.5319820197636753 1.95903914914506 6.134314018950938 0 0 0
13 1 1.3113678326900198 1.0909248403436957 6.157370253295984 0 0 0
28 1 0.7935567003006128 0.9892036822600846 9.696065134096267 0 0 0
29 1 0.4105599312532607 2.3551238073203185 9.936984396531127 0 0 0
30 1 1.3405259774937508 2.6413604644408477 11.112886723480752 0 0 0
38 1 2.6777856773028725 1.8480669029130503 10.875641077702706 0 0 0
105 1 0.3880618773027626 0.030505918740938446 10.582479633345425 0 1 0
36 1 2.9083561845651458 0.591178873278677 11.524869181891146 0 0 0
4 1 1.5143947206076922 3.087637480254966 1.4993502709512858 0 0 0
6 1 0.7367468511481895 4.019881130060348 0.6671035217741736 0 0 0
7 1 -0.10204053643278971 4.831983844213678 1.3555650380185646 0 0 0
14 1 2.256147145988212 3.527203782843547 6.354680911029477 0 0 0
63 1 0.4386425616867857 5.202002143079851 8.517458718967891 0 0 0
22 1 0.7857308483145716 3.7200062206378317 6.271688556107154 0 0 0
34 1 1.1881449694274604 3.943028157333846 11.579794680950478 0 0 0
64 1 1.629478207968323 5.0116250594489555 10.725400381523665 0 0 0
66 1 1.6879037468657359 4.923552510841675 9.251073988984148 0 0 0
42 1 1.792959613520245 8.085171988469375 1.3567727887327494 0 0 0
45 1 0.04558778414401936 6.19299546886581 1.5770111549349786 0 0 0
39 1 0.4106072038505843 8.31411457414604 0.6816064611990459 0 0 0
41 1 1.6090690870820403 7.811081022267461 2.6630984342133797 0 0 0
43 1 2.8817180116949874 8.13244285108684 0.3299958017127202 0 0 0
40 1 0.5189298681882438 6.71843064546486 2.8026609321024494 0 0 0
54 1 2.428882339133797 6.591544697060342 5.299755203584229 0 0 0
50 1 2.288687759384642 8.619134906234557 3.6066524976693546 0 0 0
52 1 0.9502867441652889 6.316329478866449 5.146373881089727 0 0 0
60 1 2.6788224893329446 7.931925469642982 4.72175620181181 0 0 0
53 1 0.005455381790366335 6.288939063627722 4.121602851778936 0 0 0
108 1 1.445420223042956 8.489170600152203 8.56231706124246 0 0 0
67 1 1.7747090370397227 7.1437549070606154 8.09995422004059 0 0 0
71 1 0.7415953162626377 6.316529978669723 7.662158797380278 0 0 0
59 1 0.23794586884954505 6.6496481816854836 6.398688573297573 0 0 0
109 1 0.18705980251620866 9.035607362045996 8.359924141455572 0 0 0
75 1 1.5653202567564388 8.679946935979693 10.953391089935536 0 0 0
76 1 2.273949907989167 7.654452184565514 11.52257715113856 0 0 0
77 1 2.1232462924197733 6.170391490954558 11.413718298649679 0 0 0
107 1 2.1136223381133172 9.03928471420127 9.647670633125303 0 0 0
89 1 1.561234493238122 10.416497874597466 0.5909431092398365 0 0 0
84 1 1.5561619789691445 10.591778205432473 1.938205325258934 0 0 0
85 1 2.8884561432245754 10.53437322721297 0.05195525373013702 0 0 0
21 1 1.8181138001083923 11.434742909539933 5.031318537397385 0 -1 0
96 1 1.031872959253178 10.399397836922901 5.54181269552973 0 0 0
83 1 2.499467897391411 9.87425357983297 3.057093376792456 0 0 0
80 1 0.689169075154376 9.390520016083219 12.00037668285977 0 0 0
1 1 3.482347814482799 1.6724769949641507 2.156653039441819 0 0 0
3 1 4.430746058120582 0.6614827916178885 2.3381698082461404 0 0 0
2 1 5.741365329649238 0.8279552598415862 2.7295707986899114 0 0 0
18 1 3.9106790798481272 1.3278954261550584 5.84540442889467 0 0 0
16 1 4.117137303984185 -0.0863851271179095 5.369774269696459 0 0 0
10 1 4.986973998404315 2.026817961539438 6.39798704440093 0 0 0
24 1 5.5140987430553325 2.54963355971189 8.677633719030728 0 0 0
9 1 5.79228860487627 2.6954703509495768 7.291030524493802 0 0 0
25 1 3.240992630319884 1.9646553309202455 9.578320639217472 0 0 0
27 1 4.217802265981242 2.9090014984118833 9.174789618741574 0 0 0
48 1 4.862894670561338 5.232238941497314 0.21269301475160018 0 0 0
8 1 3.493717504298953 4.084061970587101 2.0334161422207937 0 0 0
46 1 4.599270518532544 4.897109579557426 1.5927665934431445 0 0 0
44 1 5.513837316030756 5.272316373634462 2.636656168340766 0 0 0
56 1 4.963901742999574 5.86017407329395 5.805754134770967 0 0 0
58 1 5.874279767377821 4.588027493242018 5.764140514006237 0 0 0
51 1 3.4732515816842606 5.655911329099261 5.988539188219071 0 0 0
57 1 3.053341375185997 4.668317032983449 6.8825051202383545 0 0 0
70 1 3.046202372657492 5.0920223081399625 8.468902762185843 0 0 0
78 1 4.8902434577554645 4.082942240726119 11.58708202184597 0 0 0
69 1 5.024659179536402 4.7416060832402085 10.218661691971507 0 0 0
68 1 4.062430440367338 4.346536459542326 9.259195682770045 0 0 0
37 1 5.701596224624817 2.9858330163185864 11.796805035057014 0 0 0
72 1 5.818574113319265 5.900767128428971 10.554722880033653 0 0 0
47 1 4.91108375418466 7.987141408261185 2.3112017890843113 0 0 0
82 1 4.833430254663713 8.978956944314229 1.1806830657463727 0 0 0
49 1 5.70040991746564 6.7496420752689765 2.6924642357703377 0 0 0
55 1 5.69167190744394 7.093493054374771 5.780437562193503 0 0 0
92 1 4.61910311139879 8.744886947073782 3.5629245727060055 0 0 0
73 1 4.2493136938813425 7.59214859860813 8.79151731677056 0 0 0
62 1 5.7549849271234255 7.29456402110124 8.367156683283882 0 0 0
61 1 5.732652354753172 7.902455848975913 6.945523525093421 0 0 0
65 1 3.180921598814604 6.679986014611791 8.494014088851426 0 0 0
102 1 4.3083512886774145 8.972833117307939 9.235044236672714 0 0 0
81 1 5.852085551917573 6.0798669273764325 11.965798491612642 0 0 0
90 1 3.616636669640187 9.285639019329937 0.4657394674808684 0 0 0
88 1 4.1005677205755955 11.673175798242932 2.307214747815887 0 0 0
91 1 5.857280206109395 9.87005153191901 1.0288603573905666 0 0 0
97 1 5.505769549764496 10.175273555995746 5.481536477080496 0 0 0
94 1 5.398038767911382 11.602060996158192 5.373464516145881 0 0 0
87 1 3.407501678996061 10.967281212419564 3.3031546360183563 0 0 0
20 1 3.1903107221020623 11.563405950365134 4.555755425663526 0 -1 0
95 1 5.707871534835111 9.599782659321988 4.2027677967425205 0 0 0
93 1 5.506750344292958 9.500352257941511 6.688667816403412 0 0 0
100 1 5.499529478532651 10.435901368400184 7.880507718128823 0 0 0
106 1 5.005249312145277 11.781812656219595 8.210789259725153 0 0 0
33 1 3.647792263219157 11.977930077690718 8.785134610141457 0 -1 0
101 1 5.54222949285308 9.60408158999202 9.052002755910443 0 0 0
98 1 3.4018455593395758 11.10533244944911 9.986845867808439 0 0 0
99 1 3.260532912277351 9.731891709174816 9.765280724366097 0 0 0
103 1 3.175343466107554 11.510236968580264 11.409923007043894 0 0 0
114 1 8.691683909053392 1.9313935233063435 0.42198345317260677 0 0 0
15 1 6.692104363359043 -0.08628581799866582 5.0227142338034705 0 0 0
19 1 6.5451840846248865 0.781954855288306 3.8413876297324507 0 0 0
123 1 8.846327264146986 0.6811993968153308 4.941708243910775 0 0 0
26 1 6.203565512620442 0.2473020272480847 8.673240899145558 0 0 0
134 1 6.907890232269055 2.5373377051119714 11.177326403710017 0 0 0
130 1 8.196158339783114 2.74692725775795 11.72525753411612 0 0 0
35 1 6.829634227369809 2.56413535220066 9.421200246201519 0 0 0
129 1 8.460651734017064 0.31375232397499486 9.183362574875384 0 0 0
137 1 7.277414875317303 1.0592709090493588 9.16736077013208 0 0 0
147 1 7.666381819541738 4.49233152736638 2.4949446517207963 0 0 0
139 1 8.861222940561532 5.326477754882149 2.108855435387934 0 0 0
141 1 6.472774169767393 4.520358624445337 3.25197886426208 0 0 0
150 1 7.955968726073819 3.7732122165105015 4.9883504136820696 0 0 0
156 1 6.6768494640037375 4.324772942185253 4.692178671903612 0 0 0
151 1 8.34267232692114 5.323921357245055 7.257327819274604 0 0 0
166 1 7.436755305030784 4.49337258341119 7.769344429558817 0 0 0
23 1 6.385684000754209 3.941615660923046 6.967879001595789 0 0 0
165 1 8.72156383638612 4.482210015611875 10.031731064743386 0 0 0
136 1 8.960820951803596 3.896195166373854 11.250461182812671 0 0 0
167 1 7.72119046174633 3.869294445023184 9.136911796993802 0 0 0
171 1 7.783344871236972 8.437834458073212 1.5072723275198159 0 0 0
140 1 7.652438111754113 7.81505003787087 0.18432678244021308 0 0 0
145 1 6.971901571383587 6.566544113913439 0.2641578616283812 0 0 0
142 1 8.09905995118762 7.535533007016101 2.6071409337513933 0 0 0
144 1 6.911557095087657 7.1757604199291665 3.4660133619650186 0 0 0
148 1 6.903969624557741 7.185576606466862 4.910311245070501 0 0 0
154 1 8.117989619308863 7.157791480632246 5.604595428253768 0 0 0
153 1 8.217575115989847 6.675783471633468 6.86907185499391 0 0 0
162 1 8.603658302075845 7.681771574270825 7.822968190310525 0 0 0
188 1 7.5323579340350575 8.414099963184833 11.148992550756887 0 0 0
160 1 7.647796796485147 7.496473466984875 9.942434089647586 0 0 0
159 1 8.610227579443114 7.054273083934819 9.108671505824804 0 0 0
74 1 6.426802127753507 6.836740590859263 9.66637783700826 0 0 0
169 1 6.910857061776648 9.541912488276987 1.9371244876065274 0 0 0
174 1 7.953640048571174 10.574684981490307 3.581140038746564 0 0 0
170 1 6.784888930601676 9.964838244597694 3.248427240421699 0 0 0
121 1 8.001687035026572 11.986806114904612 5.347997598026821 0 -1 0
181 1 8.563613603144951 11.3266035084826 8.566295727238202 0 0 0
178 1 8.701134204059537 11.094973700295517 6.208550732556278 0 0 0
180 1 7.8925117976587496 10.118343238115246 8.623935107895749 0 0 0
177 1 8.765412000107304 9.618140160689638 6.216139089392649 0 0 0
184 1 8.492303149664693 9.164350916842697 7.624515954705815 0 0 0
104 1 6.771292689655556 9.924573139094186 9.563280318909792 0 0 0
110 1 6.838487250363639 9.70906534078925 11.02767424444475 0 0 0
86 1 6.169011175873339 10.233956561028885 12.098226912872073 0 0 -1
115 1 10.735941080999918 1.6166530161982613 2.258973062097626 0 0 0
112 1 9.7745088304007 1.6673200978123448 1.1615848096303405 0 0 0
116 1 12.092265447758377 1.1384809064713006 2.5436511411087093 0 0 0
111 1 10.208329472741443 2.0652693237639075 3.4739492431293963 0 0 0
120 1 10.10102551345079 0.904869081297276 4.413100333375722 0 0 0
126 1 11.223668581865974 -0.070468758889397 4.2803097318440875 0 0 0
127 1 10.277936697457212 0.4548273094022501 7.8378416693054 0 0 0
189 1 11.599709135689885 0.15725797269940028 7.535432966424715 0 1 0
131 1 9.72072522710647 1.1208042833178864 9.027123823082933 0 0 0
135 1 10.411444272242843 2.2380133734908356 9.534379974265105 0 0 0
119 1 9.849906570527185 4.779561214098636 1.2184319948200983 0 0 0
117 1 11.034895074551955 4.272419715267174 1.9092990104917023 0 0 0
113 1 9.69345230769095 4.72457826671567 -0.1296692834226616 0 0 0
146 1 10.928251476089228 4.359766817796143 3.366479803143136 0 0 0
124 1 9.34493640697688 3.6990804201596643 5.109088230225343 0 0 0
128 1 10.158101442470635 3.335352374291374 3.965523842464877 0 0 0
157 1 10.96448481539566 5.622334837164509 4.05809339883518 0 0 0
161 1 10.40705129933854 5.197118455842861 8.475682983767905 0 0 0
155 1 9.759286103563277 4.818440793989873 7.244049816873916 0 0 0
125 1 10.24816564055858 4.129526677830449 6.146882385040453 0 0 0
122 1 11.681106366629397 3.7191617495847464 6.135206488346968 0 0 0
133 1 11.558421381032838 4.4746725816147706 8.883041432779693 0 0 0
163 1 9.339763178415865 5.6088942504933055 9.336382463230247 0 0 0
132 1 11.56959009561736 3.104965914458729 9.526263101137568 0 0 0
168 1 11.872846197874406 7.228927885314367 0.7898229211105499 0 0 1
79 1 10.633637251244679 7.278499999179711 0.01432070109411699 -1 0 1
143 1 9.09446737265588 6.551252972288291 2.802480621671066 0 0 0
149 1 9.289012496390132 7.632958229645112 4.961548429569983 0 0 0
138 1 9.85315307511349 6.565306012156289 3.955965435569529 0 0 0
175 1 9.50472332020112 8.97884623860864 5.115475235409948 0 0 0
152 1 11.779675975220242 7.739712162225263 6.317641245496154 0 0 0
158 1 10.301620999552803 7.64862247281588 11.08299828818561 0 0 0
164 1 10.275383985687279 8.612944445803196 10.05092857871074 0 0 0
172 1 10.121942250916636 10.040479199507633 4.292978154491139 0 0 0
173 1 11.098703363595588 10.876526218641265 4.793216704308891 0 0 0
179 1 9.29088026464535 10.43966046750478 3.262135523626741 0 0 0
176 1 11.954682539505106 10.568789109132725 5.937433954513608 0 0 0
182 1 11.580613784899608 9.931856353481148 8.524244627515772 0 0 0
186 1 11.623206303389665 10.904611349121657 7.436809100800029 0 0 0
185 1 9.224431330095246 11.766810403208712 7.324465031988506 0 0 0
187 1 10.454328354047455 10.982739897142666 10.53106399201022 0 0 0
190 1 11.55607815212923 11.822747205413199 10.885410059069693 0 0 0
183 1 10.73879287584269 9.839843652911789 9.649330067450522 0 0 0
191 1 9.263703506762443 11.351863127694353 11.206968802238004 0 0 0

Velocities

5 8.08612482893146 -0.5699006613492699 -9.589280238406799
12 -1.647581930011766 -15.112205275254624 0.3415685521097121
118 -8.429338128442618 9.346715384431109 0.059474466776468525
11 -4.374493840773313 -9.135196221533423 -3.6475255061569256
32 -1.9108035194679522 2.0607640519932624 3.718244443325497
31 -6.065134082514656 7.1992895176305645 8.068927700874681
17 -13.130257044200084 -11.821132426634675 3.793688482415321
13 -3.4638132160214274 -15.68940321716833 7.995705810345864
28 -2.8270195039229167 -3.6766298108642794 2.2100783394259422
29 -5.549579430916502 -4.514761910973439 6.518431265106071
30 11.835493399845356 -1.1870966049515619 3.061937010956086
38 3.3079810250099455 -5.419229632859774 3.285932255265466
105 5.051127933430127 -11.785569944431986 5.838091017208151
36 -4.644103428897509 -0.9230444253503307 -12.216486598096804
4 -8.162918657699942 0.5048805106512423 -4.6506118793402464
6 8.665128295917272 -1.1129735112237644 -10.855333626121531
7 2.5617380982818374 7.233708105506513 0.04943477482249293
14 -5.490142971991879 9.478835153594455 -8.863811657829977
63 1.3212201680969764 -4.387511686242151 6.459904115276336
22 -1.3712992110487114 4.987627708615556 1.0200119651369721
34 6.438209908717652 -4.2041799537565145 2.1779395579614573
64 6.003132367576322 6.651183811888394 -5.433193702288782
66 -9.266207094662404 5.214689436546587 2.3685907875466143
42 -3.740021805712223 6.075825019853031 -3.664906526136268
45 16.61024427569184 13.155011112686179 5.269152838931093
39 -8.703780566206028 -7.215699275824397 5.878117195222832
41 0.8508270819879868 6.8634357185004005 9.343928118419678
43 -6.411491210001925 0.22029060715608917 8.775076655902419
40 1.8688138754661152 7.490283663097036 -17.68911384935798
54 -19.19915459694011 0.6100326689745462 -7.821982264875264
50 18.320403190571998 5.458174331296769 14.793404968465348
52 -7.044079110536417 6.6408395721580415 0.6019183343566304
60 -8.42142436729935 -0.6234356345948086 -11.910189568360437
53 -1.7072970219301264 7.258776993270542 -13.652041169564308
108 -4.276832357124699 -3.616259971367276 -7.797996149603585
67 8.605230221167103 7.39109800117524 -11.354005685318326
71 11.19371418499676 -1.1855578202070818 -18.538561247825445
59 -15.73714262998551 -5.518166378049801 8.355792707924792
109 5.289436432584402 -7.195354262524957 3.702999768761916
75 3.379892899189555 -8.664165987091383 7.400535640070249
76 -18.0866436038855 14.701823681139222 2.8004833298114926
77 2.7371702462128744 5.121918704946318 -3.7983492798942162
107 16.163492566783642 3.0016651258027407 -1.09878843006045
89 -17.664215381263247 -7.366737269669383 -3.9080114690574574
84 2.1215980550271363 -1.3309201863783395 6.691218445328474
85 9.048984922101482 0.1003349400236711 2.4666745879726504
21 -7.881653892494891 8.623290174215123 -5.338652821074643
96 -14.037166752687533 3.6894485782616657 -6.395514084045149
83 -5.510541807293627 4.480378145486564 1.785338126293856
80 -10.599182913699421 0.8433466349499084 6.728217329523879
1 1.2570391096765015 -10.211080537594125 -6.654839427474964
3 6.614780858548329 -5.563765681107258 1.1765490725565941
2 -4.279100801035733 3.135458375927805 -13.088029110293762
18 3.6817063804324612 4.802048216545719 -3.531103548761577
16 -14.606444616035654 -8.428869835387644 10.252762535685811
10 -13.365541548812661 17.841486982081026 -4.6966495565813835
24 -2.6705373426473336 -5.760845796127997 5.446267413671671
9 10.325277909937615 -3.5583619056601736 5.716079610942735
25 0.34716026291661534 3.067878151582759 7.481051848702703
27 1.1084332201441383 10.239206833517846 -18.30761424785362
48 -0.606340276053871 -10.392121119587562 17.653302609654464
8 1.1827364657634178 -8.217933543095217 6.334064294839379
46 10.567328662556246 -14.281755867407272 -1.4023008787008209
44 14.366785278604713 -0.5463842084753436 7.668624492234438
56 9.720876682063977 2.0711245595657295 6.8280034224258594
58 -17.498490629881246 -0.9542823768233769 -0.3304923377248764
51 4.717361234065657 8.274338849415084 -3.901884782766983
57 5.807315134761257 7.919297298260004 -0.8780635269012665
70 -12.82725164124974 0.94623902704066 -4.588691944568599
78 10.756188100607147 3.210928089307792 2.2767459938389196
69 3.8553050388362737 10.846053949753573 2.847114127329164
68 18.29566396739636 -9.092823930336856 4.346239501547151
37 4.594998006876162 -10.94975772039322 -11.414116538715882
72 -11.385140605170136 -1.6341935898390358 -3.9651405246688856
47 -10.303145118434305 3.2886894547717573 -5.085508422354645
82 12.674277107368937 5.809052834642379 13.758211178833376
49 -3.8151044830431475 -14.431283449248124 13.503978782916946
55 -3.390793790449696 -1.4629489911729026 5.8579928516492545
92 9.147129754942366 -0.13356274466860812 15.297233653298843
73 -3.627858501824619 1.0383263047309272 3.5417449588963317
62 -4.13941086050202 14.34880350018722 -9.845794068846018
61 -7.8087177019010685 -5.119758202740379 -2.238565725846048
65 10.933726132680327 26.315262899852787 -12.127527629623948
102 -0.9386489856267662 -13.451139469644241 -0.7153315236679744
81 9.61860559600154 -3.003736227451588 -8.822985903745787
90 3.6913535330867213 11.724444195885358 13.040661262641674
88 14.814580687078012 -8.101245912794086 13.692292137876269
91 7.157883160593069 3.8314250497816156 -10.196216450886912
97 -10.78779207639294 1.8605536363621105 -3.4747481193198597
94 4.037651382143641 14.732531952540318 -7.49475897444287
87 -13.721059157093233 8.188074753221365 0.4564315687138263
20 6.034343491755811 -3.930019930067157 -4.220744543761885
95 1.001457530298861 -1.771519720079955 -0.7480077751900913
93 1.905948259788307 -3.5826792355750054 -4.061729182546465
100 -15.12048916024003 4.721524539100252 10.121987114320586
106 11.521289460243796 4.300774800244292 -5.168353760359091
33 17.779735565706112 0.30717738424997165 -1.7686456373509214
101 -3.7323987366514997 -21.84941407777081 -8.970001539003267
98 7.923354792816098 4.177470972588768 3.9348994440459797
99 -2.609461609124579 -4.358512382768316 1.8345054748091514
103 6.440617601505299 -2.0533158765749913 -4.672457470109705
114 6.226261951180357 3.7531166683886488 -5.35599543785929
15 -15.843796678725482 -4.41547925448964 -6.405238308802049
19 -10.115675394372088 6.2089491974009725 5.679039432655946
123 3.0831159190292095 -8.015189660186076 8.098711560411218
26 -8.770845286280089 -12.140832664413253 2.4982099314837805
134 10.620228834433087 -4.297716987366261 5.149880235008788
130 5.578138554101574 15.173931538392626 -5.673218412137851
35 -1.5534729386526196 3.8427337036980473 -6.7346794843118865
129 11.460929454867342 9.718660604635057 5.268927385503932
137 3.608408388808124 -13.838865990187433 12.251837141926261
147 11.092242352813525 1.3147050476535003 0.3330611131842289
139 -5.905073935599213 22.81517430379566 -6.707345125679237
141 -3.42098578333719 3.4369806415396065 -13.047481888242396
150 24.425091339053203 3.191461859430837 -9.07827899323631
156 -9.833874422264344 12.401618076889752 -2.8450848133967384
151 -7.796170568850712 -4.858059605867615 9.154847654120825
166 -24.48951620343012 -1.8115561914509812 -7.829929707793174
23 -1.9452694500734693 0.02768959065379249 -0.2290890817367756
165 -1.44763485572718 0.2095310819413647 10.199698989436124
136 0.22386812105803838 0.4255137030775483 3.24800875952071
167 1.8930680773921171 -2.612284205925692 -13.808078957106865
171 -2.236230023195816 -2.7109954861135575 6.4341521724079485
140 -5.812627741514806 -1.8174756599084785 -14.39988813138391
145 -11.488018461115837 -3.757712090645012 -1.6615609301858596
142 0.8448429758840831 0.4679367454624454 11.09485392313584
144 10.382237946438549 7.1573307344822314 -15.08624260736977
148 3.5122728774658163 3.753965995505299 -0.6897814923800246
154 0.9374133585841525 -6.194576867836109 -2.249600514463773
153 -8.200794128164286 17.112185078417657 -4.699314277496609
162 3.282145821817693 7.632672867386723 2.5740769233566025
188 -6.297979136796034 -13.781091767992496 -3.730780854779482
160 3.8172433709728635 14.216532487514348 -20.663049869578828
159 -18.074570538865473 -4.0799526897328 3.4005197469397603
74 6.398714804989839 -1.710393331143696 9.012675747533534
169 -16.18606976827043 6.910682248432166 1.3461714685761024
174 10.947490637966997 -2.7214972287458403 12.854373968675926
170 -10.731405934120714 -20.760133542808244 3.6576557469984885
121 12.039158280749822 3.833027745459686 -1.6745478302239478
181 -9.37093454744149 9.882440274545948 -6.722296297044442
178 0.5839687934520889 -1.0941707660111168 -3.6096752303720665
180 -8.717521073232582 7.648746074042014 -4.9852920913183985
177 -0.7162086638942602 11.030193285684943 4.459940308426838
184 -6.861932922043108 4.6156392615550335 11.089357639104419
104 -4.6172459556843535 -1.7620098478766666 1.3765287819771443
110 15.64490387695074 -2.306942361893159 10.683265984588731
86 11.12358639105183 8.062987724593063 -4.48111626434282
115 4.5844704839551635 -1.9008084927077524 -5.46050815009057
112 -11.17529687546557 -10.145754292295553 -2.9738819258544016
116 9.501671634460184 -5.684425641225462 -15.592607406338908
111 23.02315141401519 -5.31066987231831 1.3653840320779345
120 2.034962640687435 -12.749079310062738 -6.555343875368543
126 0.3423749792684673 -7.59828487736681 -5.734326032967151
127 7.017189242870884 14.54198669328263 -0.3655706528657093
189 12.958223387429538 -3.4104079656262543 5.972206697036204
131 -7.061954787488532 -17.719695847971423 5.954610691889008
135 -2.5004661908302634 -3.6569053584253814 -5.522117042478115
119 0.0059543703718859635 -6.453397620023183 17.503253096020707
117 3.931804355466939 -12.808985876433622 1.5140148819529284
113 -5.4345079341451905 7.153288238349164 0.5969650866689972
146 -5.061073538923231 -3.568384637536822 -2.0096627129204965
124 0.805607444205382 7.101686540631513 -1.9123111146945684
128 4.002759668815633 -3.4568336346643047 -2.316861186915323
157 -4.146171047686594 -10.372954570390675 2.743138452918595
161 10.563028978589422 2.217828859366622 0.6294019205632607
155 1.0726338433325509 6.48486666485381 6.501173864364552
125 -5.387812235555894 12.855057757444506 -4.708624612945125
122 2.789292142250757 -6.233198981399622 0.5247015948675667
133 -3.29013556384831 -5.85612869057207 -5.40277519280391
163 6.351744776296614 4.969175601797211 -10.665004277551098
132 -0.5086446244464945 -14.0539656302766 9.179093469476518
168 6.562631370585642 -1.6030416378857537 -0.27844473281625254
79 -4.2063736100501705 -0.7068454657464684 4.371131913261516
143 -1.6253382432732102 -4.82915195070046 6.578178417663994
149 -3.1093436589232217 -1.275298034014702 3.4154093023422214
138 1.6535851044597056 2.2458757750038574 -9.253690017335813
175 -7.0211061420191365 14.60773485306264 7.806381661080259
152 -17.695765312044017 -2.4351483750790393 7.878439562920627
158 -2.9300909302438907 3.763782062701194 -1.6700157869170902
164 -4.5592693931476775 0.9177516038067619 -5.637517354345466
172 -8.190176349315005 -9.863115630223856 0.21043049314072376
173 4.455474759374825 16.911418342193237 -7.060587993104002
179 -3.756397648856893 -5.084080783921784 8.412271093496363
176 14.10701968887099 -2.864330767542041 8.016511613742502
182 -1.1348795040367123 -10.899492837220384 -2.2764733306867857
186 5.6831551105764895 -8.68813377470047 8.513252616424944
185 -13.230662305594167 -1.7888393845837907 0.22199839462761514
187 11.438326321138124 -2.3702342832349705 9.809523660815422
190 11.053369927196037 -12.63417472850036 10.207277137688193
183 -5.135589493750431 -3.0020233326478727 5.484059822189831
191 17.177319401037188 8.79047338850484 0.45638287055145516
