LAMMPS data file via write_data, version 8 Apr 2021, timestep = 6000

191 atoms
1 atom types

-0.15182613066126532 12.15182613066127 xlo xhi
-0.15182613066126532 12.15182613066127 ylo yhi
-0.15182613066126532 12.15182613066127 zlo zhi

Masses

1 12.0107

Atoms # atomic

116 1 -0.1388839876991814 1.0065924975993545 2.368857923829519 1 0 0
12 1 1.3052913018242125 0.5185827549443628 4.782728743061972 0 0 0
118 1 0.21383792672644114 0.6534907152821716 3.8799652067653385 1 0 0
13 1 1.2434681666139062 1.2555853547689686 5.978878452143229 0 0 0
17 1 2.370336314227299 2.13139697520929 5.9002464111384105 0 0 0
11 1 0.463423012999915 0.8590812705266073 7.14449244220088 0 0 0
32 1 1.1516985903778827 0.7118813465645714 8.452039411513644 0 0 0
31 1 2.6499198822861736 0.744638352511367 8.640283854759472 0 0 0
28 1 0.34680873547327734 0.9247788143162273 9.521519631967399 0 0 0
29 1 0.19868568726755495 2.2212487987602048 9.963866896714412 0 0 0
30 1 1.2673360054065552 2.563400416232591 10.712567443259246 0 0 0
38 1 2.439619427420829 1.7458327333115202 10.684879729763013 0 0 0
36 1 2.6983690234181017 0.6566456046097913 11.427072637777934 0 0 0
45 1 1.051711632206385 5.31052969237442 2.252561060289171 0 0 0
6 1 1.125595441178454 3.5442187814850454 0.6554181051431893 0 0 0
7 1 0.27649861694396227 4.346858365082093 1.439281706224425 0 0 0
4 1 2.1432300861345417 2.9384952180118704 1.3355400944189901 0 0 0
14 1 2.0648485455755177 3.492497225783391 6.640448563804842 0 0 0
22 1 0.6448956718163471 3.627228533779173 7.140450882430159 0 0 0
63 1 0.5483697812694331 4.55496688681535 8.340346234811006 0 0 0
34 1 1.067142593327479 3.646923330688055 11.554331065598637 0 0 0
64 1 1.3228949009822841 4.803700317441013 10.798348223140577 0 0 0
66 1 1.6331780329186514 4.519648607147059 9.391688744294251 0 0 0
39 1 0.12762409151500279 8.629893863779765 1.0398745211161964 0 0 0
42 1 1.1608725283557797 7.973923561037811 1.4924760273473732 0 0 0
43 1 2.1020232334175706 7.4593912837526375 0.5207640130019092 0 0 0
41 1 1.3687812259626808 7.614106066198352 2.758966086605862 0 0 0
54 1 2.5602003254906163 6.646140298307545 5.533094216028064 0 0 0
50 1 2.0296171851723868 8.476958437034286 3.678382382494448 0 0 0
52 1 1.0448108400402218 6.307300664669829 5.597258030549369 0 0 0
60 1 2.7473377389945206 7.894042241785808 4.823919870775872 0 0 0
40 1 1.1823357936303762 6.313318831455861 3.1857170160399377 0 0 0
53 1 0.3875628408516191 6.091172793747066 4.371081702510111 0 0 0
108 1 1.2024855858374832 8.285359346725436 8.679879795058934 0 0 0
67 1 1.564621340449779 6.9198448428403605 8.60706198411175 0 0 0
109 1 0.1734252455484412 8.697034198285047 7.7359767133997535 0 0 0
59 1 0.2074776274195341 6.480349560628979 6.667807494277663 0 0 0
71 1 0.6682242051686227 6.023968102543186 7.964157926632526 0 0 0
75 1 0.9901629740267626 8.6327246787447 11.14663934669609 0 0 0
76 1 1.4481811011139556 7.349982492343281 11.589291650640776 0 0 0
77 1 1.2902624422551898 6.048232337103827 11.14400713580204 0 0 0
107 1 1.5189054992968323 9.009762616822174 9.925846822833668 0 0 0
89 1 1.395622995063939 10.540188269093196 0.6734415276028303 0 0 0
84 1 1.2058973239737727 10.423607263676196 2.1564707249189743 0 0 0
85 1 2.670957627123388 11.083069279760688 0.3759475773071654 0 0 0
80 1 0.6752533921898014 9.418548690055967 -0.08928389395939587 0 0 1
96 1 1.3754341361182087 10.57042193275658 5.495663531520478 0 0 0
21 1 2.093498431749297 11.577062008043168 4.787339716976313 0 -1 0
83 1 2.08755349593702 9.79476201418227 3.1326936049757164 0 0 0
176 1 -0.08341386807601774 10.569363676498332 5.833287943957006 1 0 0
103 1 2.9155012435172707 11.539397460287255 11.406614316432174 0 0 0
99 1 2.8474002026722265 9.635437522135346 9.853238907785261 0 0 0
1 1 4.505249233760233 2.0259425632160895 2.0827492142353448 0 0 0
16 1 4.29175454116802 0.05141496821119191 5.08876131710246 0 0 0
18 1 3.8080346456946947 1.541063678270047 5.638676190567586 0 0 0
3 1 5.56559416827123 2.00321906701826 2.942933012796771 0 0 0
10 1 4.883713237930551 2.12650881185607 6.433886192218449 0 0 0
24 1 5.567960265178407 2.6890820121944534 8.698606944793234 0 0 0
9 1 5.664927215639342 2.856283538131194 7.243829928687265 0 0 0
26 1 5.806722394396748 0.17137468289395216 8.88601617088757 0 0 0
25 1 3.2167134400368944 1.9473433941956415 9.473536448115452 0 0 0
27 1 4.252816319942496 2.9225781263470507 9.226583509448457 0 0 0
48 1 5.558058209369923 5.304050439843337 0.264069972961515 0 0 0
5 1 3.4466416018722783 2.9865371916695778 1.8635896501329627 0 0 0
46 1 4.867065792424679 5.293456593587166 1.4914789903702224 0 0 0
8 1 3.798501334836018 4.391405984398804 1.843619558088416 0 0 0
44 1 5.656261124149924 5.696677105503453 2.5923414601268395 0 0 0
56 1 5.072492395496932 5.770789644457511 5.769743131049611 0 0 0
51 1 3.571515464757443 5.674640267458978 5.981894380369103 0 0 0
70 1 2.9598309037233657 4.935915370207952 8.563578767685568 0 0 0
57 1 3.061914034809492 4.509403087171227 6.9815423565457 0 0 0
78 1 5.207557820432582 4.175802824468689 11.743576324782335 0 0 0
68 1 3.9011469552775146 4.2529514373598944 9.484826756563917 0 0 0
69 1 4.800857852324568 4.863510320286934 10.391844770248959 0 0 0
37 1 5.887497116249317 2.9338489856506174 11.811314915780773 0 0 0
47 1 4.75271239011797 8.056086434502308 2.6472068655707135 0 0 0
82 1 4.563015793557229 8.26191633119034 1.2753954228900788 0 0 0
90 1 3.401446637500534 7.827145617347872 0.6375386820367567 0 0 0
55 1 5.891462921233667 7.011357531581619 5.795557260687201 0 0 0
49 1 5.685356782064363 7.080366385787069 3.1127122733677464 0 0 0
73 1 3.994964846200521 7.4947745396579055 8.912599191423734 0 0 0
62 1 5.340787398361042 7.328025888284743 8.256301752659288 0 0 0
61 1 5.598414136489485 7.944904227594676 6.890269974340088 0 0 0
65 1 3.017819714384025 6.43074309180131 8.642472929156908 0 0 0
72 1 5.396783779937714 6.201497762348794 10.361408119280737 0 0 0
102 1 3.927488878259742 8.871022596762666 9.362328393528541 0 0 0
81 1 5.976246403758382 6.399800073083517 11.717583018004971 0 0 0
88 1 3.540596807960802 10.881324971097357 1.4416869428553143 0 0 0
91 1 5.405065973690277 9.306113030556611 0.8509804235086028 0 0 0
94 1 5.625094497577067 11.851195632395951 5.411061457872144 0 0 0
20 1 3.4219907448597824 11.54676871532828 4.296222484354459 0 -1 0
87 1 3.5237741647658125 10.521527737041742 3.0469766687512694 0 0 0
92 1 4.544171437980164 9.396530941730424 3.3392863972797153 0 0 0
95 1 5.7700695359080605 9.820362237556555 3.99324171432517 0 0 0
97 1 5.674108790388633 10.431748555641459 5.366754231052445 0 0 0
93 1 5.353644610055152 9.504793718850701 6.738144810415451 0 0 0
100 1 5.059628251326364 10.320096709450938 7.768341474351572 0 0 0
106 1 4.698449134776941 11.685523693530941 8.337409179086595 0 0 0
33 1 3.439918986270648 11.898737714193299 8.866662320535157 0 -1 0
86 1 5.598168161854687 9.943320091740892 11.89135575309672 0 0 -1
98 1 3.070054925142688 11.043729440574046 10.061673697921668 0 0 0
101 1 5.21098833878386 9.604419663824487 9.100866610585518 0 0 0
15 1 6.819208181435458 0.2505280582738583 5.508446183467691 0 0 0
19 1 6.752219713920969 1.514313562360192 4.841185408462837 0 0 0
123 1 9.060515353105522 -0.08896142368443626 4.302709629308722 0 0 0
2 1 6.610751020621527 2.242413474832149 3.7082112410186028 0 0 0
137 1 6.842520952499377 0.7254833585133472 9.505212165891892 0 0 0
134 1 7.010586092960088 2.6627237589449404 10.963206947034527 0 0 0
129 1 8.262206423537878 0.31555072411000484 9.398026384969269 0 0 0
147 1 7.837497829959475 4.699383786010448 2.261195590339691 0 0 0
139 1 9.04531411879987 5.259411472049772 1.8738076653968554 0 0 0
156 1 7.014243553441921 4.588919452704546 4.569437725413686 0 0 0
150 1 8.305931854285696 4.10243927062976 4.804590784400988 0 0 0
141 1 6.683414377275812 4.8916138775781155 3.136390437624936 0 0 0
58 1 6.084475456887039 4.727510622759654 5.642502140225525 0 0 0
151 1 8.634753485533546 5.331608733570005 7.050778027801595 0 0 0
166 1 7.49749378301294 4.498169097946578 7.706030385161289 0 0 0
23 1 6.46230771037981 3.9462838780740292 6.814660757380813 0 0 0
165 1 8.382215681610665 4.712445066573023 10.012932850382255 0 0 0
136 1 8.911026940156182 4.180155344100124 11.183462642509836 0 0 0
35 1 6.744002578904592 3.0065205247872058 9.54794761408296 0 0 0
167 1 7.357503900473364 4.132945089573571 9.08802172175146 0 0 0
130 1 8.322025569787474 2.953272877591966 11.536913608566778 0 0 0
171 1 7.707646272375516 8.45008703260326 1.4002645257964645 0 0 0
142 1 8.125588630694052 7.601157071907573 2.542318492731973 0 0 0
140 1 7.8276654957543546 8.218897100969984 -0.07055162954451472 0 0 0
144 1 6.936623296452931 7.483403630390858 3.53318896002322 0 0 0
148 1 7.093025384789163 7.345856699942805 4.954595494721689 0 0 0
154 1 8.451173780569194 7.2529232151552785 5.559917407207251 0 0 0
153 1 8.596742263564616 6.723463090720979 6.873182586378786 0 0 0
162 1 8.63664221815298 7.748583668949684 7.970237388241706 0 0 0
145 1 7.278117520154712 7.132549953685432 11.470459473150338 0 0 -1
160 1 7.388971233506259 7.159439266839265 10.080754928774484 0 0 0
159 1 8.517910560774537 6.941345543358979 9.231353365201414 0 0 0
74 1 6.182220452705841 6.8374597850240635 9.336366972063715 0 0 0
169 1 6.551985161557066 9.395724557055965 1.8346881188280022 0 0 0
121 1 8.078490151570909 11.969115169115366 5.434029586466175 0 -1 0
174 1 8.135242412507417 10.451765049015547 3.2329211962701145 0 0 0
170 1 6.809850228408349 10.06837623410112 3.0882223278456795 0 0 0
181 1 8.393999335955353 11.320329052574419 8.69658601915013 0 0 0
178 1 8.575854565008195 11.039246799912227 6.370362532686906 0 0 0
180 1 7.758485919108941 10.035186080277883 8.717614878563793 0 0 0
177 1 8.823938105312042 9.587421208325406 6.385522085668316 0 0 0
185 1 9.054646483867426 11.658280169378934 7.522150696285041 0 0 0
184 1 8.38062562755502 9.08863607136409 7.742860370628366 0 0 0
104 1 6.5596816877883075 9.808320168310281 9.592894645109785 0 0 0
110 1 6.745971547192777 9.965032828141137 11.053090312057686 0 0 0
188 1 8.03566457470852 9.466276307405938 11.490323178932364 0 0 0
115 1 10.992590647946724 1.7636295937438267 2.138800735220682 0 0 0
112 1 10.12196530904683 1.823314820468905 0.9650037563906477 0 0 0
114 1 9.118370262078809 2.152182704956978 0.13649266130991125 0 0 0
111 1 10.256621506734648 2.034175730046251 3.3997025183899563 0 0 0
120 1 10.127639195654677 0.8328607743985836 4.2153508760521685 0 0 0
126 1 11.304089305151537 0.055153288842610206 4.366037283821533 0 0 0
127 1 10.152523952047561 0.2689015426887087 7.9121112838680085 0 0 0
189 1 11.466193641666415 0.040934773747755296 7.279482024954645 0 1 0
135 1 10.192241055485614 2.2061690392208226 9.379593385241803 0 0 0
105 1 11.999695791845928 -0.024374814104150228 10.307093633981543 -1 1 0
132 1 11.460571971791538 2.888342743454058 9.40897657311334 0 0 0
131 1 9.6411086157789 0.8516775959995979 9.184653164159787 0 0 0
119 1 10.07786372596573 4.764074564988332 1.1520895248272875 0 0 0
117 1 11.283636067655742 4.505572434817569 1.843900383457009 0 0 0
146 1 10.988227148281739 4.527280929040038 3.254608827668138 0 0 0
124 1 9.701552676851774 3.7542770221988917 5.0480503933590315 0 0 0
128 1 10.31314302252127 3.4446658347555585 3.806061903517023 0 0 0
157 1 11.323331616814283 5.833076065484374 3.952753886805492 0 0 0
161 1 10.439465708097297 5.026897160616863 8.682943709298502 0 0 0
155 1 9.98749609652838 4.742688565386909 7.308784336944901 0 0 0
122 1 11.783400774991305 3.4613255544972494 6.293274760450524 0 0 0
125 1 10.458200915125982 4.023309110776607 6.165780522658418 0 0 0
133 1 11.499371516762261 4.251014048896439 9.037988379476923 0 0 0
163 1 9.218521597789652 5.633215135457621 9.360749172538911 0 0 0
113 1 9.906211049639662 4.613613353850516 12.043621352556194 0 0 -1
168 1 11.106244489645777 8.200014339483054 0.94282871638369 0 0 1
143 1 9.202513049384994 6.659571492705022 2.5901702291810382 0 0 0
149 1 9.639597009717834 7.752794990429145 4.90964780128015 0 0 0
138 1 10.091857473210183 6.74422003092672 3.851761958527168 0 0 0
152 1 11.893757978790838 7.751884293136093 6.754191627886072 0 0 0
158 1 10.813717620485473 7.675680770749503 10.836636283658684 0 0 0
164 1 11.11893114198175 8.302569170963121 9.689117249379393 0 0 0
79 1 10.614314868217006 7.694783900630846 12.12724758909638 -1 0 0
172 1 10.293656393656892 10.069046657845831 4.481783898386877 0 0 0
173 1 11.306189846403223 10.965506371881508 4.849173395701351 0 0 0
179 1 9.376673710044127 10.821600158931856 3.753946814384978 0 0 0
175 1 9.700569085743059 9.0914495236776 5.340247019820887 0 0 0
182 1 11.661214638282349 9.874316813761736 8.059901493019114 0 0 0
186 1 11.758496734244863 10.968247437757949 7.119070998223593 0 0 0
187 1 10.389256825480762 10.567399576578058 10.254483043761935 0 0 0
190 1 11.162022016384912 11.506875672630624 10.882086242851361 0 0 0
183 1 10.872194456129698 9.639107685541807 9.168231004826794 0 0 0
191 1 9.211737056877517 9.96151280357031 10.810507120584798 0 0 0

Velocities

116 -4.76600128832622 4.485867194765569 2.717707339640744
12 -0.7552398897705664 4.097782054547885 13.67625570282908
118 10.1079643179886 2.8606108001235424 -8.007281187729715
13 0.8616597727272786 -1.167348107996584 9.54027285085623
17 -8.707605164442022 -6.906534679210855 -1.567454922433119
11 12.740229932596057 -1.262104180937444 11.386002912744539
32 11.149231482736901 -17.28018540927278 -1.4516026945627238
31 -10.884839069564396 -5.273255361160252 -0.7265896540353337
28 4.967752100656089 -20.856611586486775 12.464741297564174
29 3.3421598672892845 -2.5889420762238284 -9.392923152824014
30 -3.048089726235356 1.5444696239407016 1.883722730282317
38 7.652748540556161 -17.576233420715248 -3.404540179701117
36 2.9194699663056407 14.230062489327642 8.718964282185112
45 -3.0575424995841303 -2.2798940172655877 -13.272475269792283
6 0.45716881469437176 -0.5857741109487393 2.90857936944786
7 9.836468024957886 -2.6606043517209508 13.28946617943467
4 3.5237867344465887 -1.3103811618873245 -13.146228704365909
14 -3.0661172614236 7.9675634692998205 -4.218158082996036
22 -5.446704219411515 11.609912896437674 1.950749756006739
63 -14.338550138186461 18.655223899915395 -6.578025617799789
34 3.1538302283406545 -3.553578322542742 -5.194030051834172
64 -11.702797838624235 1.71598620190211 8.242109951893683
66 2.517668478166724 2.687388058623236 -11.038554753855276
39 -5.407261454201396 -3.270881752633844 26.94911602257829
42 -4.365275435953448 -9.771697929673932 1.9123759801844247
43 5.2627229951763725 1.7065293293776616 -10.286937765623735
41 -7.6728990458274415 12.220811756345451 0.8374336484375604
54 7.588621482197766 4.5739833547349456 -2.430553922486793
50 7.868696862851695 1.6761558178609017 -0.8360665854389546
52 0.15864068153212282 -5.140770768341979 4.002186673269763
60 -12.941649156648532 -3.340420558851093 5.562474534913789
40 -11.717554492456802 9.936396985751639 -10.109873358992381
53 -2.7641687587708077 -5.280220837750973 0.41200046292932035
108 -1.0745841342146798 5.196941460805044 -8.02422800424782
67 7.535913597970406 4.119384068586226 -3.6049605407511196
109 -7.533368360097171 -5.614151887364 21.03043172526972
59 -19.406170960980802 3.7456130720617864 5.241767134013709
71 -4.991330757762024 2.4915177773049137 -2.8874427224243324
75 -8.13526935991961 7.297451072392818 17.383412426357122
76 3.492248294474258 3.3140388047822795 2.4189775270303175
77 6.992325552250198 22.117805239997256 6.04024874245849
107 13.223755462489926 -12.062555506931698 2.8352841134215043
89 -4.512674253428881 -7.675020008015341 -0.8796946779221324
84 -1.1360452217408588 5.797984392154266 4.546076925351025
85 -6.574485097445713 -5.175577704474773 1.6818610653605492
80 15.222699191265258 -9.375669909575581 -7.457251306556091
96 -3.680898113848646 -4.917408966615916 -1.0623502194957148
21 0.8473901431313803 6.790824965144644 -14.44477472941202
83 0.26502378455127984 -0.7828898110831963 -0.1092491652666898
176 0.12026125581707728 -16.259037280926442 2.4382090506380765
103 15.75879526140191 4.284750119134518 -5.8911275821702445
99 8.543154214858058 8.925383032863 -8.840641589489392
1 -1.7663688671402447 -10.348000564710077 0.29087714291080724
16 3.9504101964490146 10.56928346805107 -13.551115338281974
18 10.292540899814965 6.405007946788834 4.489907498606636
3 -4.681125485993944 -6.624108341921528 10.452522812481375
10 20.440869909783252 -1.2278201870448235 2.068106156072759
24 21.07310325825965 14.870229521601312 1.1243095198158608
9 -10.276392301982636 -2.028605140514793 -3.9314875679191017
26 2.410006223130748 -7.999687323893354 -7.121746091191325
25 14.208433677409648 -12.60038242566592 -13.619922403759718
27 -7.776065996139174 4.263239579799531 -8.332547031486323
48 4.038761592705213 -10.798208619322992 -3.52518441795387
5 1.6605302478420725 7.083196074707502 0.48783411723582887
46 0.4237196047671804 26.567455907020623 -1.6864992586274377
8 -3.014151327011149 7.773950395932741 -7.631966769839439
44 -18.92071878493793 4.979790788409545 -6.113539380025751
56 -19.09065268620275 5.542665089873292 9.38945864492031
51 1.0414958376508952 4.356111977303293 -14.920336543733944
70 0.7250901593108413 -7.155640986851818 7.626067053225567
57 7.319180772496441 1.7910012886429472 1.2635293156089358
78 14.37541387852892 -8.533620176953354 0.7193292592990236
68 -11.344141294578424 0.5006530683524988 10.67343585053361
69 -7.264253332053522 -2.0076360969853857 2.9826782662741644
37 5.216023349575827 1.481870871322533 -2.674455213730784
47 -2.5911776795173873 -2.960570587641197 22.9910914732429
82 2.809722975649623 -5.718960063822066 7.604902091924017
90 -7.388232156429901 8.140508385651962 -4.179645441506972
55 -4.77553515830011 8.07646425545569 19.857782434718636
49 2.8944882057118244 0.8294787919202553 2.5723944173030207
73 -4.146579050386312 -2.396946699599664 5.489320194047673
62 -8.686781286214446 13.168118016637234 -7.555340957369637
61 -3.6052788988513393 1.5010900130568798 6.256354554041391
65 -1.4390715745807554 2.6215898355394613 1.4791219085611227
72 2.858447874768021 2.4168120958237043 -0.11001576697054936
102 -12.086684092533087 18.81482834043644 -3.309834048052084
81 -7.863242672545673 5.043285485757529 4.1666442003131
88 -2.694798224088895 -3.7071847151592063 3.793137147416013
91 -13.765459527758136 11.480903632044004 -1.3745790545960659
94 20.17092410438177 -8.692554508338475 -1.4612440352503568
20 4.556406760109754 -8.17399102822674 -3.365529819473489
87 11.1869485808393 -3.185387581177506 1.298085541404162
92 -2.1222073266106065 9.331529550280903 -19.933645262828772
95 -8.204364931620793 6.573745098195273 -0.2815457217014327
97 6.3484186384836425 14.562291006283917 -5.140348103077732
93 -11.429111609078646 1.095558195886697 18.091743491751327
100 0.9968394802381649 0.2703707064738479 -24.512923228450855
106 16.113065466300434 6.059862396587608 1.6024225790791788
33 -2.048341248887468 -11.21135054340124 -0.7689554822117733
86 -3.551834097186026 -7.254908933125391 -2.0502715832027385
98 -16.44631622019494 4.780897794577472 -3.2882182060557716
101 -11.381358080847011 2.6880743257731403 -2.385605796998172
15 -4.151164546432176 5.218444150725647 -1.9204141727570239
19 8.421511095022895 -16.988831983671407 -1.466553759280433
123 -4.126448968151334 -4.731518952299756 6.934059748332011
2 -0.6790691472802867 16.88968367038833 14.541666034866926
137 2.9421067962716885 6.791888007784226 -0.3825198833554701
134 19.127989458266224 -0.8478040545524705 -7.1497633624411
129 -10.953015150280011 -18.128120362590046 -4.910488762948686
147 -10.29335770579291 1.5272802917391248 10.755073524306377
139 -2.9820622090136597 16.403286875728405 -4.665600186495991
156 5.188277873410408 10.438099959858466 1.6969512522116863
150 8.169150017700852 9.582133534139857 -0.641073249527962
141 3.566142312138923 -1.6440404387034229 6.570774395117984
58 8.48058920012118 -5.60319836538867 -6.0236824256847346
151 -2.365768052976414 3.6731899484130652 8.389973017338848
166 -1.2382595212509677 -4.490379402193401 -10.472909487372062
23 -10.05088549908726 3.698238479739629 -14.88238678164653
165 4.683589652286653 -19.425115811046073 -7.438902441297556
136 0.5044331384741529 3.282426551198537 -7.261127215407471
35 3.252260412574495 4.22542065694659 2.4575918916313273
167 7.450571233083075 -6.806981452790264 -5.071659606385434
130 10.067675082022747 7.296996663474205 -15.840441067230463
171 -1.1734872324445196 -1.3850785991407815 -7.730637206618995
142 9.552752688604453 4.936848341178039 -7.917574036993332
140 6.615730619231036 0.7558537934934315 3.31861373541711
144 -2.9263402103529588 1.9240145752899547 3.4290883564592556
148 5.31140569892685 6.713542447900099 -2.8464562270254254
154 1.4453796679181468 -7.682787167854308 7.954483271044507
153 0.101785691566806 -1.98844151293632 5.802365691201985
162 6.233709898324179 17.712327266670634 4.090509788918053
145 1.253974484278009 -8.29818626104156 3.159721147784211
160 -9.039286985947063 6.515702991521764 -7.050174202188948
159 -0.14421183958830516 14.812524250644097 8.889005764993795
74 2.0719744952915073 -11.097021212919838 -5.952756015344551
169 -7.780225830378551 2.996630981211683 -5.005896469986016
121 4.908490792430869 7.858813415961071 10.213468903550147
174 -5.646994334945694 7.654064573910225 -0.9380338657770109
170 11.882544449942657 16.474541506046673 -0.26168993140075525
181 8.580878600655668 -8.029322487028823 10.595831503169757
178 -10.286590897938131 12.091440557145788 -13.415891970808437
180 -8.264067576873526 -8.408160103171769 4.429135023100796
177 10.113050187734192 -3.0097320603642337 -10.120980652096495
185 1.7377289520552976 2.2905118789756367 1.1246721805365951
184 -18.8063184611972 3.9202811366982435 -7.292259140561045
104 13.398298088286783 -16.848799966118612 4.160591340158804
110 0.4354937823383142 -1.8381886470236164 7.522737005981516
188 -0.13244801518000218 4.15204130751612 22.176904059314552
115 0.4143749209294972 4.9433873912888675 -4.311263232485727
112 -3.8406525898267883 -12.17343424035061 -3.0176826122160114
114 -14.088955221020012 2.0561502939601066 -15.317031092014851
111 11.099934753598683 -1.0085861278344774 9.494948546775186
120 9.561430341903078 -34.83201135653818 -3.879770246892021
126 -3.1177247547887488 -7.847252167543627 -6.641647228876073
127 3.7646746830803983 4.344669901477164 -6.089003976438697
189 8.056323390893679 5.728615450347101 1.0294902470583984
135 -5.809781067708473 1.0361145838653616 -11.303230305228464
105 1.7764533482803218 -20.20301856491401 3.8003420297058446
132 0.7987654761473675 2.2351137263899554 -10.251509759646584
131 4.90910912851926 -9.933075732958859 7.222043966493703
119 -0.4219217511236127 -15.356564548399522 -5.0688810563179105
117 3.877194356495387 -2.3746822924019897 13.30592931922974
146 -12.278025695981775 -0.23639531410715406 10.728678684959997
124 7.286804141753932 12.395143551904555 -22.42839918225405
128 6.351037682385512 13.211296333199732 -5.942456467317938
157 -7.772011561251858 -6.170544426886137 7.078675120505733
161 -0.498779705385336 -4.487324397376588 -4.521190851189124
155 -7.431695803892918 3.8740493508333933 1.99247895673856
122 15.275783598208353 -2.7187094867448636 -5.251062153644653
125 2.1421257645309852 3.645659477351083 10.222591457645422
133 12.052010806923525 4.692646579391305 8.823150256656886
163 2.19768600189551 -3.6833523336575147 -11.490304554147183
113 -14.646867921065633 -13.86409119627174 -0.20134378729767063
168 1.1305405550201433 -8.452400024095114 -7.4606916092348605
143 4.396748024336304 -7.856316345604853 17.613260240397764
149 -5.574883716633358 -9.478219274884912 9.62392422397811
138 -7.7693434510278365 -12.289654950786984 2.6706417681330743
152 2.6271451741300385 -15.875805956258924 -10.550003205871562
158 -0.5605545630312511 2.536520417410704 -1.1950303665833406
164 -18.737737570009887 -1.852832139460654 -15.141855260691756
79 2.9164821393879143 -10.716695851583676 -11.115323987658792
172 6.604131023985441 -5.127356522293049 -4.489050445353238
173 -3.3917754854127775 -2.920483768917304 12.19984639649854
179 2.1848500992721447 12.719010927165355 -0.7577780583019881
175 -7.076204592119423 -9.905238582874496 8.911106144485856
182 -2.4107662242730705 4.363417224698444 -11.288806856132677
186 -7.500554383269221 3.367805524033528 8.443165838995263
187 -12.220890128060228 -4.575734596184011 22.60542531012354
190 4.652944597431897 1.9400706426901173 0.8877078131703474
183 6.560348506961223 -7.7230428556887185 9.530176614438943
191 -5.1191276391345495 2.891645095744415 0.8244227356157082
