LAMMPS data file via write_data, version 8 Apr 2021, timestep = 6000

191 atoms
1 atom types

-0.11641390275270673 12.116413902752633 xlo xhi
-0.11641390275270673 12.116413902752633 ylo yhi
-0.11641390275270673 12.116413902752633 zlo zhi

Masses

1 12.0107

Atoms # atomic

5 1 2.873765182646349 2.898537664479301 2.65752684932989 0 0 0
12 1 1.0358714414244585 0.7076506670367289 4.968641560132347 0 0 0
118 1 0.04769416298635249 0.7367411824876697 3.9590968794721375 1 0 0
11 1 0.5786414689134606 0.948297728474015 7.314484478426586 0 0 0
32 1 1.3791852337582702 0.7952774966593125 8.502175581883831 0 0 0
13 1 1.1399503264046091 1.4997909863640617 6.102405717201179 0 0 0
17 1 2.342612493888587 2.3628594225232673 6.090048175819775 0 0 0
31 1 2.8451605617459714 0.9046157616947159 8.746673562612084 0 0 0
28 1 0.5792539755663128 0.9469583699632391 9.648057714380599 0 0 0
38 1 2.5787577283137053 1.9286243701453771 10.754854896164678 0 0 0
30 1 1.4462213245659132 2.7741948111431443 10.83158170721073 0 0 0
29 1 0.33205798901895967 2.3444351608658645 10.05520618427436 0 0 0
36 1 2.8796568582041835 0.8428797487962746 11.56718974889342 0 0 0
105 1 0.2976278259425082 -0.07187981010751976 10.551093936743808 0 1 0
6 1 1.119445412455248 3.8457789108098135 0.7102496849938392 0 0 0
7 1 0.00987754957546361 4.537068694702952 1.2711822055990143 0 0 0
45 1 0.3660147995998221 5.8995426277476914 1.4991978749113588 0 0 0
4 1 1.787295823080538 3.046112447691069 1.705809032781607 0 0 0
53 1 0.44354555511054905 5.927807637282202 3.9084507742988186 0 0 0
14 1 2.2291213728422696 3.7004610873459685 6.527228069648026 0 0 0
22 1 0.8595835801220931 3.967507479777646 6.9595105167140074 0 0 0
63 1 0.6987075223745431 4.223478492173794 8.32210949680935 0 0 0
34 1 1.5520128581365638 3.921466264225058 11.623809952058732 0 0 0
64 1 1.810807092863752 5.019305932671769 10.690710440057947 0 0 0
66 1 1.6935369890255276 4.818683472474026 9.241025069065236 0 0 0
39 1 0.683907548226784 7.8880528337984765 0.608973868177524 0 0 0
42 1 1.958922902491045 7.745297133525559 1.2208589052676746 0 0 0
41 1 2.125130414038324 7.304989745528218 2.553742973982392 0 0 0
40 1 1.200402411020375 6.165559303133041 2.690870567287232 0 0 0
54 1 2.500873117252109 6.665988583473167 5.281728223712096 0 0 0
50 1 2.35832275378854 8.40653227918046 3.355529075922347 0 0 0
52 1 1.1543272120981278 6.389358622150357 5.1206080900647315 0 0 0
60 1 2.9103300444204074 7.796916002196147 4.53590011699106 0 0 0
108 1 1.3162484334906028 8.678239961591611 8.652656869488341 0 0 0
67 1 1.6324791144259285 7.355510504489632 8.147845655242879 0 0 0
71 1 0.7064703882191165 6.782643892709305 7.326138362754528 0 0 0
59 1 0.2077380682215107 6.972238541770455 6.03567580853768 0 0 0
65 1 2.901575517823428 6.772399801919143 8.595343252160953 0 0 0
77 1 2.273697780565682 6.252006503332748 11.050464366837424 0 0 0
76 1 2.455541732881747 7.601011627377259 11.33456798136982 0 0 0
75 1 1.4210120724674271 8.466429424096747 10.890205297069702 0 0 0
80 1 0.6703670813702789 9.03379195496874 11.933465403728741 0 0 0
89 1 0.7656244574538995 10.183256631650263 0.5843471045279941 0 0 0
84 1 1.2310869571476375 10.190176179488148 1.8554607975874258 0 0 0
83 1 2.188850022888847 9.79898566400079 2.8362288360157195 0 0 0
96 1 1.0009043763500935 10.684878028666226 5.665463520049669 0 0 0
21 1 1.764591462911118 11.629204707788205 5.0319194631994115 0 -1 0
109 1 0.32204837023821764 9.318018104275364 7.958655535271278 0 0 0
107 1 1.7967268534603449 9.185472189307575 9.801948679302429 0 0 0
1 1 3.762000723738205 1.8900296094754763 2.206939306167944 0 0 0
3 1 5.025208574123052 1.4403233500220511 2.3215753722419628 0 0 0
16 1 3.9326071349706617 0.26577611678527074 5.187377610128133 0 0 0
18 1 3.7398519116002675 1.6181882469269984 5.700497374725372 0 0 0
10 1 4.892849943735885 2.2011583071149317 6.227171517484094 0 0 0
24 1 5.491446381553862 2.798346581038603 8.626492658681997 0 0 0
9 1 5.55083395465565 2.93770106189652 7.225768031358755 0 0 0
25 1 3.2029129614076934 1.9862024975021746 9.520364787148326 0 0 0
48 1 4.0835912412302875 4.701924961634278 0.7321208572549457 0 0 0
44 1 5.383681193704164 5.498078062911538 2.5252797394967668 0 0 0
46 1 4.301290111155595 4.769266647474353 2.1238457409223837 0 0 0
56 1 5.068272296682209 5.762200932178688 5.637437291218439 0 0 0
8 1 3.5046542240019787 4.104201122824039 3.047154181247369 0 0 0
51 1 3.604231240340245 5.727757922189514 5.77670318154122 0 0 0
57 1 3.0668621900870425 4.822707738992217 6.908637627578439 0 0 0
70 1 3.024088479738857 5.202421938172268 8.506138170628779 0 0 0
78 1 4.680574982358528 4.262739453650835 11.696096319395764 0 0 0
68 1 4.025282666669522 4.455110974352332 9.351403527408145 0 0 0
69 1 4.693094476874882 4.928655528240793 10.440357801447638 0 0 0
37 1 5.606852830385653 3.1782282891296028 11.786481971286888 0 0 0
27 1 4.162695156720831 2.9869115272717237 9.120362304978503 0 0 0
47 1 5.1241196610910675 7.976076483641639 2.372418934641565 0 0 0
49 1 5.630551341250857 6.696362077497596 1.7926626692981709 0 0 0
43 1 2.998586704283718 8.098991293638122 0.4133443004528666 0 0 0
82 1 4.892599319690471 9.036313798373092 1.365778728124377 0 0 0
92 1 5.736843138070592 8.270667009655071 3.5566824858486603 0 0 0
55 1 5.878349230923412 7.009522023317268 5.784780528897509 0 0 0
73 1 3.98172413640551 7.634873105512854 8.726694367701022 0 0 0
62 1 5.308466604556466 7.195816620114018 8.244599684254613 0 0 0
61 1 5.652029513246275 7.879638316742954 6.9028224327740855 0 0 0
102 1 4.234438879835314 8.844098542985865 9.524264737109824 0 0 0
81 1 5.4847643583743695 6.626127095978257 11.703295056110926 0 0 0
72 1 5.3275517528243945 6.14570224296091 10.387006023908455 0 0 0
88 1 3.3806200195256704 11.515470930169725 1.7643408145275827 0 0 0
85 1 3.4541328834471114 10.838612875510638 0.3545175454765494 0 0 0
90 1 3.8011178595393247 9.399702708244162 0.5098291901676208 0 0 0
97 1 5.50063562200399 10.298432269146872 5.354932440585204 0 0 0
94 1 5.2961445375209 11.76114238833768 5.216837679672394 0 0 0
87 1 3.17347188157459 11.082960071351362 3.050193247441294 0 0 0
20 1 3.0108812813478085 11.714721740926834 4.423929696753878 0 -1 0
95 1 5.8005460816938745 9.661881787412426 4.03235828225597 0 0 0
93 1 5.3785755165245615 9.654027530388012 6.653848039959581 0 0 0
100 1 5.1325648966321955 10.381417790518658 7.947263063274003 0 0 0
106 1 4.910434625470868 11.7797786077666 8.234227729404449 0 0 0
33 1 3.6965273258620996 12.039637864744662 8.985756781631489 0 -1 0
98 1 3.234767759475925 11.109104294126107 10.058228285388568 0 0 0
103 1 3.2254368450262 11.603274402451516 11.409422737570056 0 0 0
99 1 3.1117378187464313 9.74902937309263 9.765875541002885 0 0 0
101 1 5.402055062367934 9.619069580599062 9.170075407773794 0 0 0
114 1 8.917339654526355 2.3200126870193096 0.2742287531957599 0 0 0
2 1 6.047620669449905 0.8046444156464025 2.7675334410312087 0 0 0
123 1 8.941523953984994 0.9089362147619195 5.447945849760711 0 0 0
19 1 6.914237057007775 0.27897984046477997 3.723295111106898 0 0 0
15 1 6.5929771927286795 0.18199877666385925 5.090476841201637 0 0 0
121 1 7.861944020809711 -0.048679914427976284 5.7886372468846075 0 0 0
26 1 6.059438150750036 0.3138787039095372 8.801177247329724 0 0 0
129 1 8.52292958001823 0.2841756123329836 9.58056378186247 0 0 0
134 1 6.5372162351898915 2.5946585759081104 10.957107578926228 0 0 0
130 1 7.636290185160632 1.9875232394706632 11.740651757093982 0 0 0
137 1 7.085569222108887 0.5030784130141243 9.598722765952221 0 0 0
147 1 7.602322744882708 4.726548002437211 2.143549546259093 0 0 0
139 1 8.772276686942652 5.310911276949554 1.9204652357754037 0 0 0
156 1 6.97278978129228 4.520601523497054 4.446445201847201 0 0 0
150 1 8.324356043555198 4.32634171483243 4.719172961099902 0 0 0
141 1 6.53738102748042 4.7880920743016695 3.1359065309787333 0 0 0
58 1 6.066644515388615 4.693870963086021 5.657607341513108 0 0 0
151 1 8.526056994185534 5.174760741305429 7.237775874350066 0 0 0
166 1 7.524031371340074 4.2115439471143326 7.642129527439423 0 0 0
23 1 6.438946570949502 3.9472489151835948 6.746413954600219 0 0 0
167 1 7.736820202835734 3.7651091732149653 8.97388029245073 0 0 0
165 1 8.732348380688165 4.418289285884093 9.828829762134362 0 0 0
35 1 6.607700385826761 2.9604910729602305 9.506413198888097 0 0 0
171 1 7.844355682706395 8.202980421040404 1.613848891824549 0 0 0
140 1 7.54092267428937 7.509824383607205 0.4031734410823889 0 0 0
145 1 6.280821473291467 6.900666193339207 0.5743494160880567 0 0 0
142 1 7.999169362144989 7.505527757180837 2.817894173583745 0 0 0
144 1 7.008805221334595 7.587922863799065 3.7567753282524228 0 0 0
148 1 7.152250146769147 7.115754005992368 5.104757731672309 0 0 0
154 1 8.393407510130139 6.980849823495301 5.732215615401048 0 0 0
153 1 8.420444339361516 6.508170540062388 7.003882946014503 0 0 0
162 1 8.560147869744794 7.492783608417927 7.970339743133978 0 0 0
184 1 8.443990017660871 8.997548719336834 7.776864693851871 0 0 0
188 1 7.556488718324204 7.899564761106565 11.20767380440021 0 0 0
160 1 7.46135052989245 7.141211568747576 10.054185558293907 0 0 0
159 1 8.672976243371354 6.860513060644857 9.274555021975033 0 0 0
74 1 6.197131115460446 6.66316917494315 9.350545056607 0 0 0
169 1 7.264864389227806 9.516203702710392 1.8704472412354045 0 0 0
91 1 6.135442961053001 9.722900560140072 0.999149842718638 0 0 0
174 1 7.7419344557101555 11.277705685785293 3.2558204765607974 0 0 0
170 1 6.870977394017053 10.15305202682233 3.038611153130922 0 0 0
177 1 8.701284662696512 9.7864940833469 6.493060217368045 0 0 0
178 1 8.577859657725837 11.190141648360964 6.598555700645916 0 0 0
180 1 7.906833113350492 9.83987199154429 8.787792730101707 0 0 0
181 1 8.568996726271132 11.208944889261225 8.8711137603277 0 0 0
104 1 6.7742605341359985 9.714028315937643 9.500442147499886 0 0 0
110 1 6.9647752750263585 9.182170843591493 10.884111829454438 0 0 0
86 1 6.452558596787566 9.991340150366382 11.891471124450304 0 0 -1
115 1 10.728554602718777 1.7490824834260836 2.1858782955399345 0 0 0
112 1 9.761424247481019 1.4789787288260667 1.143260663987266 0 0 0
116 1 11.99755773676001 1.1240630554671864 2.4997403663098354 0 0 0
111 1 10.103323952415025 2.101983766758392 3.4922573102828216 0 0 0
120 1 9.96691308302364 1.1112421768613274 4.412110722639655 0 0 0
126 1 11.045177970010712 0.2566091633379986 4.415272888600128 0 0 0
127 1 10.05606752998745 0.7130870186911471 7.924076796583463 0 0 0
189 1 11.386377062114565 0.4259858536734808 7.457323318185803 0 1 0
135 1 10.042612720543667 2.440665875693857 9.932177694581162 0 0 0
131 1 9.511559593791828 1.1768153827410246 9.274468670285868 0 0 0
119 1 9.74063433002932 4.610373165094522 1.0768398024128152 0 0 0
117 1 10.903344259244527 4.335330223301494 1.8995281972152755 0 0 0
113 1 9.520374388820446 3.5890392106594113 0.015656423915414948 0 0 0
157 1 11.215900953742782 5.744911666396293 3.8652885954606644 0 0 0
124 1 9.580778793141311 3.87078086524449 5.124801137454723 0 0 0
128 1 10.296019075414918 3.46697076227546 4.018273901433184 0 0 0
146 1 10.981305462199229 4.397048638300527 3.328309554212622 0 0 0
161 1 10.53603719550112 4.961582374773249 8.529426560752688 0 0 0
155 1 9.865849751013483 4.862349947102871 7.324746237396405 0 0 0
122 1 11.831643049807896 3.691481504965266 6.190036345401985 0 0 0
125 1 10.395501775816088 4.126866679253935 6.292386461165163 0 0 0
133 1 11.635325068170868 4.221860779587548 8.84892697573833 0 0 0
163 1 9.41348606269983 5.620844374160944 9.336811397090155 0 0 0
136 1 9.467507131310226 3.4971227356518395 10.70988970585511 0 0 0
132 1 11.469721727618246 2.9993407332995576 9.546785137851648 0 0 0
143 1 9.113189453069253 6.567744663887207 2.7722158875783096 0 0 0
168 1 12.009825947403725 6.796908758496559 0.6715595751169893 0 0 1
149 1 9.691127540398426 7.565190758081358 5.105992999357926 0 0 0
138 1 10.083754226563228 6.638167051821789 3.823196183796296 0 0 0
152 1 11.093794512293375 7.451672227442249 5.744709233914435 0 0 0
158 1 11.090026094430696 7.505072417364812 10.60981029684196 0 0 0
164 1 10.783290944629318 8.464887401787514 9.837705415296949 0 0 0
79 1 11.0542780843874 6.8695886507883985 11.807726445813326 -1 0 0
172 1 9.84828419181817 10.435554542593612 4.576275007127337 0 0 0
173 1 10.99020342961912 11.117415097877918 4.882245104813194 0 0 0
176 1 11.863370281375607 10.824024071875856 5.913097833519825 0 0 0
175 1 9.385312849384613 9.382379749646935 5.35700583918819 0 0 0
179 1 9.073604480823388 10.903871289389492 3.432905706494685 0 0 0
182 1 11.510054608039871 10.16337541387828 8.255101905496279 0 0 0
186 1 11.49313743847458 11.185880803858959 7.222447293587415 0 0 0
185 1 9.256401679029015 11.670055695626045 7.669967954232804 0 0 0
187 1 10.52324304012412 10.585610731381577 10.774330510093176 0 0 0
183 1 10.857321523904556 9.791216323423711 9.561832631529613 0 0 0
191 1 9.333262009762148 10.646387625680063 11.42453059863339 0 0 0
190 1 11.647152728904501 11.377931645430182 11.165470428383587 0 0 0

Velocities

5 7.736029784714646 7.963799046075522 1.2532992396157365
12 2.7591823441839263 -3.9424977903953558 7.886439844967287
118 0.9118466210990658 -1.111825392546964 0.41248920860849264
11 4.995681005613344 -20.605485886881738 -8.269200612528545
32 -5.707369600493773 5.565453708145557 2.81323261067173
13 -2.2065843672932974 2.1068711098952346 3.707309161918072
17 24.353953370537646 -1.6525050711325384 -17.629381077073464
31 2.00337917498494 -3.56956562958842 9.0980575909081
28 8.445242922388855 0.20784252627105387 -4.6140570864736095
38 23.646912570631713 -7.6411747621156705 7.890882161643633
30 -6.724485053854809 -7.743976193881235 5.012789478134583
29 20.06779858437338 13.119742547778168 -11.03837482203382
36 -6.611278000822754 7.376654977177059 -8.937643350333673
105 -1.0069455574610895 2.7195253311918766 7.574558132195123
6 -0.18317521193717262 -3.8729027002486607 3.8374905412533282
7 -2.0254459972512384 -19.63423261523575 3.735531296973289
45 -10.64286527255336 11.066981541054979 -1.8569564898147852
4 7.101589884423404 5.314683788577656 -11.557627595469764
53 0.41389054936228614 5.967130394814599 -10.348316410166262
14 1.6987566270503165 0.833446347353046 9.4905484066948
22 -4.908772794870939 -10.177485696559188 0.4446002902567815
63 3.8771425437136373 -25.37254765146522 -12.080085164544705
34 -2.6295502044647923 1.0073672695530889 5.9131901581325925
64 -7.7446335266709525 0.49878696765174385 -4.408418545760956
66 15.461717015284922 -4.060973410246365 -1.947988955831678
39 7.4100409159558405 9.066605398577792 -0.9912141497667845
42 14.320862744807272 -4.703894649631386 2.9135484960869453
41 -2.0900486761464627 -6.757420568702835 1.8735233143884038
40 3.214814748445347 0.23569797652616803 2.061692159634045
54 -9.835712524262831 5.866669517336646 -5.812393933557766
50 9.941776367663028 -12.759381090396483 -10.643811644267231
52 -11.522091545206962 -0.9354250965314153 -0.8943417825799762
60 -8.558829333361281 14.39891810237298 -2.3451618880379
108 -1.2161917510138371 12.24911942314764 -2.1030684128983967
67 -1.266452817779409 -15.682458630218774 4.364486208669985
71 -7.590122966130753 10.064304630801955 -3.4214188409605892
59 7.315534377975601 -16.55504928928857 -5.8979986133239155
65 0.8249702078362627 -0.38136372797661217 7.567536793808659
77 -10.681194695630364 0.09652091581204872 6.088893347937916
76 -3.900998135989241 5.3095822043417815 1.7160199665801403
75 4.70227096526686 -5.55996951850156 5.291322783409957
80 8.88111111197604 5.900159424179723 -8.614408966713928
89 -3.022266497615277 -3.927951916622081 -0.6983650120501431
84 -11.675066657860148 -5.14412514400768 8.199177112425572
83 15.887006299192082 10.3702090459471 -13.328184513313532
96 -6.643674144451361 9.727749450621756 6.9253706542463345
21 -15.615475507168625 -13.993305262023258 -6.002843145595723
109 -5.456990625902164 -14.38711890889004 4.552286532071845
107 -1.411223362789538 10.180640070293196 9.240797101746908
1 -12.235667535800964 7.230318449509002 11.20556169957022
3 1.6870747219320588 -1.6377954528541003 10.901436898069186
16 13.118982340582436 -0.3436393102568759 10.603274655507022
18 -7.317956602789865 -3.965555002191048 2.45496457140264
10 -8.672901755536781 8.623722915732529 9.219155647191696
24 10.328224816200013 -4.960624625563663 -10.844102075600924
9 -5.889268091355202 -1.1682997163068563 2.5878710817559507
25 -11.78527846536459 -10.652557504597644 13.419047558486323
48 -19.068638595529297 9.074475402054333 10.07739499387374
44 -3.968982659601216 6.74335707541317 -9.53548278581928
46 4.82390344887929 17.270883343764876 -9.538929914998205
56 -3.8957991238528096 0.23709526168395897 3.7034625252198543
8 -3.7945833975270933 2.8545867942867202 -4.741590289445305
51 6.888420329077801 -0.581702809048711 4.8991426946395915
57 -11.452493082977325 4.871731353971663 2.629683926482391
70 -4.172727557926145 -4.275466192546244 6.363230199735811
78 -12.5284489877541 -10.08702416706061 -9.506336365504458
68 5.86426521335972 11.220993208707318 -3.7709698293066345
69 -7.166733809645922 -14.929859115449151 -7.444176651780141
37 -12.530567251599596 15.055685777395778 5.072874749126279
27 1.9070102365048913 21.924172830238597 21.054222461237362
47 26.102232301337246 10.527595924480243 -11.042935674135615
49 3.631187162616511 2.747793190408427 -0.3888815087211006
43 -1.7880295484758808 -7.40852624465661 14.846194948465433
82 4.003124089348354 -5.962969692768118 9.055999283416522
92 -4.696302669406263 3.5033924786228994 10.322135484997608
55 -5.505832375128553 -6.822697581820373 -2.187141530371272
73 -9.241427743840866 6.39388542696151 -1.4184583319074164
62 9.838822737293748 -20.011974323583985 -0.6060136102743237
61 -3.6374181068750473 -13.199691734903162 2.131494654059067
102 -22.530998128418062 11.797166264814262 0.6470982700997825
81 -12.477619128410495 -6.632853657328929 12.320303375518757
72 -11.643995433007198 7.175108498145751 0.2957816615948449
88 2.13692911700171 -0.9244217932236444 -5.133357788577127
85 -27.13063730267929 2.7325628734837957 9.435650418986539
90 -9.743222675848491 16.554905197816634 3.7761067753154163
97 -20.324065850101746 2.810604043915497 0.2676856494668869
94 15.007828576887844 9.930756940249637 7.040881237480433
87 -2.045753585874512 -9.665589762784977 -3.003241428746721
20 -2.8312843454291277 -2.1003082663370765 0.09845025482937099
95 4.598506377558223 -8.140135783941494 1.0733764685782772
93 0.41882079640152503 -12.175344921702397 -2.1904399506798606
100 -9.566836048522267 -5.178771985551051 -10.055521737953368
106 5.454989795643517 5.440468194698686 3.345798443456166
33 15.025819886269122 16.923766098526603 -10.418096767098517
98 13.430872673319266 -2.4923075889566797 -2.051493974688583
103 -6.909323077906385 14.297452005690765 -7.755210639937053
99 -4.673061878416922 8.741180098475496 -6.37847907687741
101 -9.697554321864542 11.149890543040875 -8.917891612666255
114 6.556826793113545 5.1513573772669 4.217436041610118
2 12.088374155361613 -3.4877768899621797 -12.211662139980737
123 -0.04440345800310685 -5.312693544751283 -11.340393248493735
19 -9.072445701503119 -5.561586661786887 -7.264562227140641
15 6.099409127987333 -12.073258067267998 5.99024267008225
121 6.462747270484966 -5.133748736901517 0.3057613373076777
26 -1.313793996178285 10.602328669985738 -0.168980954956254
129 -15.16081578937888 -4.686946448445237 -0.8611851828783583
134 2.9245498302073747 -6.192268565248533 1.7913965567265873
130 14.255743779166469 -8.628817237284398 8.566710457754986
137 0.25514660368387115 -14.14560237061646 -11.601929679703431
147 7.241414994472966 -1.6430990052538825 0.5066196125293148
139 -15.914841079909852 2.6687604487795658 4.902364157508737
156 13.511470512453212 -0.8692736705905386 6.108318334334499
150 3.6783043889947713 16.41086445048694 6.192717705878584
141 -8.665717174090688 -6.579862941110361 -0.7783934958374806
58 -8.391039233686996 1.4887947859043493 -6.553950496455483
151 13.880522297308596 -5.9084573176080095 -6.239069005232528
166 2.6693874446280685 -4.9014753725440166 1.7700984634411718
23 19.024673892112297 -7.232994081497121 -20.45700521238926
167 10.493703430029994 -2.2424747206665154 4.258959130212181
165 -3.8365547315425963 7.552514606687516 21.87475083786234
35 15.861964873180696 3.091317420255494 -2.3367115475888673
171 7.831283157441581 1.887582839095046 -6.156910744246461
140 -6.570317261296181 -6.1442801425159885 -8.318897388761942
145 11.250641599103677 -4.521622604192669 -7.651086089265795
142 4.751220709550255 7.071273819738186 4.3390479588013235
144 -13.507991722579497 -0.0482008296417206 -3.765373342602387
148 5.937328830111576 -3.279597458163942 18.83224620224777
154 -12.402409279281216 -3.912911178132423 3.4767220116418653
153 -0.2561895282222057 -0.543916810605418 0.6772026325263307
162 -0.957012311994343 -8.159005544835752 12.093645928808046
184 -9.878911667499532 -8.74807241479689 -15.040467303703217
188 -2.92812686329982 -19.47431192776512 2.2557239647665277
160 0.7986029519600082 -6.1423833665797885 -1.8540263060261208
159 0.5084721142675657 -2.921092024632281 -13.89066010717756
74 -8.517682610202165 13.493322469659303 0.8609793035675031
169 -7.545319835838608 -11.71251112889407 3.5417283861191944
91 3.332486179581476 6.907138240832968 0.6170532310240878
174 -13.707475862508653 8.650052623635931 -1.4976093880003807
170 0.39419730042967704 -10.817002256077092 -1.2922668890897189
177 7.966427660228726 -1.75009855022428 -2.025307573622016
178 -1.1552458357845397 -13.908915018018574 7.961585822152557
180 10.250562357025103 7.962437892607992 8.19948866765915
181 19.6542075286256 9.149655504833282 -4.073966763807643
104 -9.899574560587872 -8.805247494022092 -8.46047580610896
110 -12.410456020836657 -7.390870173078727 0.5051884963197464
86 17.18678851368929 0.7894203924159817 -5.440548314822883
115 -1.3034656150158785 10.98985711878356 -0.12809525616019815
112 -6.877623515125877 -3.534893792697415 -6.804645742498896
116 -9.555039118925324 4.363696036617267 -18.231187335956857
111 -12.891674929973744 -8.141517649137674 5.915866581249869
120 -4.733166172510763 7.86917680389646 -3.721038207357251
126 3.4216549557539104 -5.9215878211791475 3.9511727463546698
127 3.1380143929337834 -2.7911455481037533 4.231556694413702
189 8.509500863226075 6.660668817701241 -9.405419723251589
135 -11.162449679839487 34.084460906477275 10.500840896752361
131 -4.966502718377381 7.427430825000489 -5.980594497475556
119 -0.2830897999935771 2.433003350177899 -3.3674357855951054
117 10.063155476844727 -3.559120601090434 4.606964147758442
113 -8.863706136442847 -1.7686152205083114 6.039988848383463
157 5.683406068610851 -12.31298373060637 6.061970149363497
124 2.674009765985867 -0.9657700364396683 0.030646336819231287
128 10.385522509357582 7.989277422837977 4.083150038606564
146 10.757110053250619 -7.979709703942668 -6.158955640132825
161 11.553737875557548 -22.24502650861088 -1.2582733064295748
155 9.344533526350743 14.074047381837984 -6.957100805490285
122 -5.580840512644543 4.454948686250096 -10.49614639120525
125 3.516163683680766 -7.676693178371895 -4.945573670365625
133 -8.439967864279057 5.480067074736967 7.4217112368205305
163 4.9273339026587815 -1.8375851250570403 7.184517744295046
136 -1.0394565923540566 -3.861370182923259 -10.267069090224119
132 9.528111109715583 9.051462787632476 5.701775255620603
143 3.3809123294006294 -22.697179834987512 -17.594832750939197
168 -10.737136260071992 -6.102570812725202 -18.21005459772561
149 5.218386943518281 -1.3968729614270257 0.007220884716871589
138 -3.2668266596413655 -4.492302385838929 -5.383684796863692
152 -3.2418893244853773 9.389745009057462 -3.781275893933936
158 6.664214410621336 -4.078848347143296 4.567638743143692
164 6.128102732797197 15.864688695408722 -9.762545373895513
79 8.071258637923812 21.09225414961162 17.059097096970802
172 0.36753293763156186 12.876580635098279 1.6847056975186099
173 -6.301820017568521 0.6658834089456469 -9.875654898119294
176 -4.193700334017457 4.901906678537336 2.8259922670184783
175 -6.471821904772554 -14.723834026185294 18.243843566879704
179 6.999684900385182 8.13651714345383 1.8333542301074457
182 -1.0033043596485092 -2.2235137113245784 1.1350598656963056
186 -2.1054358869439405 20.38636991307722 -1.2692629513936864
185 5.601395396309637 -6.5624609298429215 6.596876987746924
187 -3.4821965180913432 4.244412835364607 -0.4005144435674679
183 3.8343278497413267 10.34004363346543 9.161872681294833
191 0.7368712453863356 -6.497161483497476 9.611516078083339
190 12.82836719086202 9.04055921812927 6.634133056620136
