2197
Atoms. Timestep: 16000
Ar 3.92631 10.6526 12.9363
Ar 1.93524 2.65896 1.75562
Ar 3.59463 2.88901 4.33957
Ar 13.0281 3.01391 13.9404
Ar 12.0448 12.7784 12.3872
Ar 13.635 3.30809 13.0747
Ar 6.08193 13.6611 1.49171
Ar 5.72939 1.60253 2.20885
Ar 2.55296 3.66312 12.4352
Ar 1.63812 13.2036 3.02511
Ar 4.41093 3.19305 3.63948
Ar 4.55633 4.88959 2.96236
Ar 12.048 5.51869 2.00865
Ar 4.06508 2.82951 1.9506
Ar 2.26893 3.58807 2.20399
Ar 2.91409 4.61545 2.12874
Ar 6.00435 3.09428 13.1654
Ar 4.44278 5.70258 5.55622
Ar 5.94771 2.8794 4.80214
Ar 6.10843 1.68149 14.199
Ar 13.0442 14.49 1.84255
Ar 1.80078 13.9727 12.0292
Ar 13.7645 2.28625 13.2226
Ar 3.6192 14.4527 5.79913
Ar 1.58169 3.3707 12.8323
Ar 6.05359 2.12765 3.99623
Ar 4.12081 4.83202 3.98955
Ar 5.28882 14.4316 4.23847
Ar 12.249 4.04943 11.6106
Ar 4.17485 3.92236 2.84955
Ar 4.11841 5.74221 4.55026
Ar 3.19267 8.32123 1.49035
Ar 13.9445 3.74593 2.45527
Ar 1.71831 13.2164 6.22614
Ar 8.21847 2.42167 3.29535
Ar 5.34777 12.7741 5.15304
Ar 12.9707 4.30542 3.10842
Ar 4.45553 14.4345 5.04222
Ar 4.85721 4.84235 6.13441
Ar 6.28186 4.67807 4.40474
Ar 1.59633 8.32233 2.65935
Ar 14.2843 6.69552 3.18697
Ar 5.76344 2.66042 14.0721
Ar 5.24088 5.79107 1.48603
Ar 12.9165 3.56967 5.09539
Ar 2.90815 4.07604 5.70281
Ar 3.99806 4.62701 2.05502
Ar 2.88524 5.0162 13.4781
Ar 13.776 2.79256 1.91164
Ar 1.91874 4.07176 4.17969
Ar 5.90753 5.59697 4.02286
Ar 2.87019 3.67666 4.60336
Ar 3.00637 3.01109 13.334
Ar 4.09023 2.66192 6.96297
Ar 6.98018 2.62114 4.62019
Ar 7.48363 2.2504 1.91769
Ar 13.2957 5.20846 4.92259
Ar 14.2481 2.67549 4.83151
Ar 4.15737 4.75832 6.94004
Ar 7.0519 4.08817 3.74141
Ar 2.89258 6.49931 2.51788
Ar 2.69514 5.77885 3.29544
Ar 3.76398 5.5995 6.43836
Ar 4.78894 7.46026 4.23617
Ar 13.3489 3.2821 7.35728
Ar 13.4761 1.95396 4.51131
Ar 5.25709 2.01235 5.2147
Ar 4.48168 4.78631 5.10465
Ar 14.0081 3.71908 4.74314
Ar 2.13559 2.17937 5.39679
Ar 14.2762 4.78717 11.5986
Ar 5.81358 2.64454 7.86633
Ar 2.35536 2.62261 4.49899
Ar 2.52284 3.20182 3.65337
Ar 1.79331 3.88555 3.07367
Ar 5.03747 3.31308 7.59749
Ar 2.87775 5.39397 14.464
Ar 4.6129 6.19587 6.77013
Ar 2.53398 2.63057 2.66959
Ar 4.34793 4.04454 7.88928
Ar 13.7591 3.85166 3.61473
Ar 2.79151 2.05374 7.92782
Ar 3.67901 2.53057 5.98464
Ar 4.43183 14.4293 8.58088
Ar 12.9708 2.32907 3.64344
Ar 3.88102 3.44476 5.24519
Ar 4.46541 3.94001 4.48763
Ar 2.34991 13.6069 8.12331
Ar 14.1227 1.66849 5.28006
Ar 2.20575 2.8286 6.16813
Ar 2.97131 2.97191 5.44868
Ar 13.4188 5.05443 6.97096
Ar 2.60055 3.75351 6.77728
Ar 2.88611 3.95181 2.96612
Ar 2.98327 7.03731 5.85785
Ar 6.19032 4.85018 7.19759
Ar 2.95244 2.94371 8.47115
Ar 14.1607 3.42281 8.10595
Ar 13.8883 14.3763 7.65007
Ar 4.08926 2.87629 7.99283
Ar 13.7717 3.99769 6.59626
Ar 3.5592 5.5314 9.23177
Ar 5.25075 4.37404 7.08169
Ar 2.99603 2.68109 7.00161
Ar 2.79925 13.8926 6.33824
Ar 13.4432 2.62271 8.26667
Ar 14.2323 2.38752 5.97229
Ar 6.11584 3.34024 8.55324
Ar 13.6462 4.38886 5.52158
Ar 11.8841 3.81663 5.60025
Ar 4.58029 2.22625 9.26562
Ar 7.15903 3.62699 8.37962
Ar 12.9145 12.7966 6.83863
Ar 1.81103 13.9287 7.02844
Ar 4.63051 12.2988 8.33173
Ar 7.91095 14.4825 7.28474
Ar 12.3124 12.3437 6.081
Ar 3.52464 3.48392 6.31024
Ar 5.96664 1.58285 10.8182
Ar 4.70851 3.10391 9.79909
Ar 13.4761 5.35224 8.00971
Ar 14.2384 3.21133 10.0904
Ar 14.2569 4.00237 10.8407
Ar 2.01009 3.94418 9.98285
Ar 11.4871 5.90203 7.87321
Ar 3.70307 2.07233 11.9725
Ar 5.57813 4.59294 9.93976
Ar 3.97648 6.792 10.2111
Ar 13.3122 2.93398 6.38335
Ar 13.1028 12.85 12.3699
Ar 2.54087 14.4671 8.76307
Ar 1.72005 10.7506 8.4214
Ar 14.2245 3.81153 9.24411
Ar 4.17188 14.3853 10.1209
Ar 3.23565 14.3998 9.58279
Ar 6.77142 1.89327 7.18833
Ar 13.6599 4.28746 7.71223
Ar 4.03265 3.80806 11.2883
Ar 4.75452 3.07024 10.8541
Ar 5.29663 5.30109 11.6956
Ar 12.3875 2.14413 10.7466
Ar 1.81923 7.17301 8.0826
Ar 4.02166 7.63544 8.50398
Ar 4.80982 6.91316 8.35021
Ar 3.61541 13.3257 11.861
Ar 2.18868 3.01743 7.57033
Ar 2.55073 1.64531 1.80296
Ar 5.69082 12.7848 8.4504
Ar 12.0908 3.98636 8.80429
Ar 13.8592 13.6372 12.2465
Ar 2.17953 13.919 9.66946
Ar 2.9011 2.35248 9.29805
Ar 12.9342 6.0674 6.55345
Ar 2.12779 12.9843 12.3949
Ar 3.4016 5.41194 11.6812
Ar 7.77232 2.89455 12.5094
Ar 11.1927 7.54474 9.11276
Ar 1.92365 4.63034 9.11756
Ar 3.81875 2.95516 9.16464
Ar 2.89625 2.75778 10.3468
Ar 1.98263 11.0763 9.40274
Ar 13.4284 2.22253 7.17595
Ar 2.58498 12.9281 9.96983
Ar 3.84992 2.32483 10.026
Ar 11.6607 2.15511 2.48584
Ar 13.6284 1.99644 10.8539
Ar 2.03941 3.28832 10.7791
Ar 2.18306 14.4166 11.1887
Ar 2.86736 2.74744 12.3224
Ar 13.2827 3.11499 9.31249
Ar 4.78157 13.4505 11.431
Ar 4.23614 14.2196 11.8808
Ar 1.75669 5.59151 9.8186
Ar 3.60144 4.40721 9.61155
Ar 5.67366 4.34682 11.9972
Ar 5.15481 3.68714 13.9288
Ar 13.8422 14.2501 13.8316
Ar 14.2074 1.61174 12.628
Ar 1.98583 2.42182 12.8784
Ar 6.399 3.57403 12.3401
Ar 2.49894 13.3305 11.4483
Ar 2.03299 12.4473 10.9851
Ar 3.04045 2.79462 1.66145
Ar 8.39739 1.73067 11.4132
Ar 3.62144 2.3486 14.002
Ar 3.02251 12.1713 2.83711
Ar 2.91902 13.8152 10.4422
Ar 5.33698 2.31782 11.3618
Ar 5.75066 2.35049 12.3056
Ar 2.04586 3.03089 13.6988
Ar 3.90023 13.4577 1.61545
Ar 3.2735 4.02645 13.1362
Ar 12.0147 1.5815 7.43177
Ar 13.9407 2.73684 12.2838
Ar 3.93567 1.56771 1.5666
Ar 2.51105 13.596 4.36807
Ar 1.7649 4.61032 2.27969
Ar 3.72038 2.77293 11.0141
Ar 6.51912 2.09488 2.85879
Ar 3.21659 14.298 13.8166
Ar 1.8244 6.48018 2.29792
Ar 13.9627 14.0646 4.28441
Ar 1.67994 1.89909 2.59904
Ar 4.73647 3.87913 12.3325
Ar 2.4398 1.78806 12.1713
Ar 8.88403 2.52062 14.475
Ar 4.91431 1.77578 14.3773
Ar 6.77663 2.60518 12.4173
Ar 14.181 8.08502 4.52932
Ar 14.2481 5.88061 13.4646
Ar 1.7999 5.69119 14.3326
Ar 2.21462 4.62078 14.3197
Ar 2.20349 5.56866 12.5122
Ar 13.9132 10.3719 3.05941
Ar 1.76239 4.96932 13.3669
Ar 4.54415 7.6568 13.35
Ar 13.7713 10.0591 14.4816
Ar 3.10709 7.33283 1.83601
Ar 2.07636 9.05662 13.9133
Ar 4.12367 10.8683 2.30925
Ar 12.9115 3.60911 2.3518
Ar 1.9951 7.38228 1.60135
Ar 4.13664 7.39316 14.3905
Ar 2.33442 4.83218 3.06696
Ar 2.8526 4.45737 3.88261
Ar 4.79981 8.76 2.2916
Ar 4.37909 6.40194 14.0478
Ar 1.589 3.72618 14.4864
Ar 2.22083 8.41678 1.77177
Ar 4.53337 9.90985 4.76328
Ar 3.25957 7.48349 3.16073
Ar 13.8146 8.30217 1.88499
Ar 14.2638 7.78461 3.50735
Ar 3.05585 6.49474 4.06893
Ar 4.06861 5.48078 14.4767
Ar 3.87135 7.99555 4.71341
Ar 2.09648 9.23345 2.5478
Ar 3.2497 2.01496 13.0088
Ar 2.85444 7.81646 5.13527
Ar 3.80777 9.47825 14.1781
Ar 14.3226 5.44371 5.00008
Ar 3.86655 8.46487 6.72409
Ar 2.3276 5.71877 5.05227
Ar 4.10917 6.70059 3.87806
Ar 2.60052 4.70286 4.88213
Ar 3.21551 4.65112 6.56648
Ar 3.38733 5.05981 5.58161
Ar 3.19441 5.43445 4.25145
Ar 1.97141 5.8236 6.95962
Ar 3.73821 7.83469 5.74656
Ar 5.04331 8.37974 4.68405
Ar 6.56448 5.93981 2.54114
Ar 14.5051 6.56336 5.04976
Ar 2.91961 7.53582 4.18876
Ar 5.92199 7.79913 4.57281
Ar 4.24122 8.88442 5.23521
Ar 4.08813 5.64027 7.45726
Ar 5.35761 5.4354 6.94586
Ar 5.01796 6.62336 5.87455
Ar 4.94952 3.07877 4.93952
Ar 3.58329 4.45217 4.77384
Ar 4.36775 9.47683 6.03291
Ar 2.36823 4.9647 5.92312
Ar 3.32223 6.0742 5.16744
Ar 14.156 7.96067 7.28953
Ar 1.59489 3.99207 7.20441
Ar 4.75142 7.62665 3.00448
Ar 4.15301 11.7179 4.63761
Ar 2.20806 4.7665 6.96498
Ar 1.76893 4.02281 6.1862
Ar 3.85669 6.56352 7.9598
Ar 5.88896 4.59657 6.21328
Ar 3.90837 6.53577 5.94284
Ar 2.89841 3.5545 9.48998
Ar 6.02987 3.83177 5.46496
Ar 5.80544 5.25725 8.13704
Ar 3.00484 7.22948 7.75107
Ar 3.25595 7.58631 6.76847
Ar 2.81909 5.8937 6.10098
Ar 5.28848 6.54894 4.12525
Ar 1.61244 4.40259 5.24716
Ar 5.15439 5.00332 8.90202
Ar 1.69587 6.43517 8.83664
Ar 4.43341 5.86008 8.50537
Ar 4.78883 5.06114 7.91208
Ar 2.10252 3.61643 8.75031
Ar 5.40236 6.11038 8.8688
Ar 5.10029 6.05188 7.71282
Ar 4.76745 9.16227 8.4547
Ar 6.59128 6.81796 6.98421
Ar 4.52557 8.39407 9.20239
Ar 2.2123 7.72853 7.26571
Ar 1.49736 6.59658 10.8205
Ar 12.4419 5.1461 6.3948
Ar 1.59747 4.4113 8.19992
Ar 5.47958 6.80696 9.86844
Ar 3.9953 7.54847 7.44935
Ar 12.9497 6.28401 9.63961
Ar 5.49693 3.76814 9.27531
Ar 14.0763 10.3672 9.22287
Ar 13.5413 5.52218 11.6772
Ar 4.55437 9.33893 12.4021
Ar 5.86106 6.86251 7.86679
Ar 5.52111 8.20139 10.7795
Ar 1.70828 2.31089 10.6497
Ar 2.46224 3.99145 7.80309
Ar 8.74588 4.74022 8.64102
Ar 7.25604 6.45008 11.2537
Ar 2.95877 5.93428 9.98515
Ar 4.97692 6.3613 11.8725
Ar 4.35945 2.9244 11.8625
Ar 3.03882 9.5087 9.19221
Ar 13.8483 9.73839 8.36881
Ar 2.00258 7.6008 9.23618
Ar 5.41033 7.98802 9.64217
Ar 5.98729 9.11756 11.0678
Ar 2.71795 4.87494 9.80369
Ar 5.04942 4.15749 11.1302
Ar 3.50986 3.83261 8.60455
Ar 5.48677 5.6573 9.85953
Ar 14.4792 7.45132 10.16
Ar 3.39068 3.50809 7.51712
Ar 2.89996 4.67871 8.78029
Ar 3.66299 6.57463 9.01962
Ar 2.68408 2.28266 11.2727
Ar 5.46312 6.89279 11.0508
Ar 3.37542 8.62481 9.80158
Ar 5.52393 8.02816 13.0417
Ar 13.3611 7.9987 11.5801
Ar 2.95756 13.4796 9.15842
Ar 4.56945 6.11078 9.55459
Ar 4.33119 4.83123 11.5763
Ar 1.96666 3.03045 11.8253
Ar 2.31461 5.14926 11.5899
Ar 4.85031 7.51003 10.3563
Ar 9.20225 5.68484 9.06592
Ar 12.2089 6.66898 13.8098
Ar 7.44373 8.56883 13.7437
Ar 4.1278 6.42049 13.0151
Ar 2.52668 6.88646 10.7482
Ar 13.0939 5.25814 12.6438
Ar 4.25872 5.81284 11.3468
Ar 2.93683 4.11056 10.549
Ar 3.95402 4.81625 8.6559
Ar 12.8304 6.93711 12.8091
Ar 2.92516 3.35421 11.4824
Ar 3.83219 4.63306 12.4673
Ar 4.89771 5.1203 10.5796
Ar 14.197 4.74117 14.3917
Ar 2.36955 8.56816 12.8781
Ar 4.903 5.6818 13.4762
Ar 2.76026 4.70047 12.4976
Ar 12.6537 6.05106 12.0187
Ar 2.19736 4.00662 13.4453
Ar 3.89697 2.8564 12.8738
Ar 3.53322 3.10805 2.88232
Ar 13.1945 6.62543 14.2617
Ar 3.3701 5.62757 12.7139
Ar 14.1661 5.28712 12.5813
Ar 4.30852 4.00172 13.265
Ar 3.5467 7.30772 12.7331
Ar 3.94055 5.09863 13.4665
Ar 4.26422 8.46406 14.4518
Ar 4.91263 7.68837 11.5454
Ar 11.3886 9.57643 14.3341
Ar 3.18574 9.40868 3.05255
Ar 2.5129 7.52951 12.7218
Ar 4.57353 8.30047 12.4017
Ar 4.31734 9.85024 3.60305
Ar 5.58082 8.39318 12.023
Ar 2.30973 7.98944 3.45283
Ar 5.74084 8.74944 1.84507
Ar 13.815 11.5969 4.12148
Ar 12.7136 7.17136 11.8009
Ar 3.83271 8.83461 11.7354
Ar 3.02989 11.0658 13.4204
Ar 13.2478 9.14934 1.94686
Ar 3.64423 7.07677 4.96441
Ar 4.22244 8.90857 4.15227
Ar 7.29066 11.5853 1.87113
Ar 2.28537 7.46301 2.55604
Ar 13.2116 6.04223 13.3748
Ar 14.4496 9.16022 1.72371
Ar 6.33264 12.0719 1.51823
Ar 3.4598 8.37637 12.7097
Ar 2.1543 9.61348 12.9783
Ar 2.90399 9.98334 13.7173
Ar 4.08494 12.4135 3.28248
Ar 14.0561 8.54823 5.50816
Ar 1.76486 7.62091 5.30642
Ar 3.1922 8.78046 4.79874
Ar 4.28443 9.75714 2.57923
Ar 13.0389 7.89708 7.02006
Ar 13.9625 10.0568 5.18464
Ar 2.51424 9.25364 3.95807
Ar 5.27191 9.01163 13.15
Ar 12.2146 10.142 2.92947
Ar 3.35624 12.2665 5.72446
Ar 5.4201 10.346 3.83744
Ar 1.51713 9.18385 12.2153
Ar 3.64718 6.60145 6.95377
Ar 5.3495 12.1985 5.99142
Ar 1.92406 10.2243 5.4449
Ar 2.19028 8.29268 4.49092
Ar 13.009 10.3465 5.71008
Ar 14.2732 7.61773 6.20561
Ar 2.54599 10.2014 2.52439
Ar 14.0773 9.29756 2.83401
Ar 3.02629 12.2385 7.37967
Ar 4.35583 12.5288 5.54211
Ar 2.68656 10.1934 3.65163
Ar 3.54806 9.76572 4.35696
Ar 2.57211 9.15686 8.27921
Ar 2.94359 5.61829 7.25972
Ar 2.59595 6.7617 6.88707
Ar 3.80684 10.2607 7.46215
Ar 2.39667 12.3595 6.23574
Ar 3.39805 4.66372 7.7329
Ar 4.0962 10.4091 5.89153
Ar 4.84981 12.0591 7.07576
Ar 4.81703 10.8276 5.22349
Ar 2.13737 11.2225 6.21422
Ar 3.86341 11.3952 3.24419
Ar 3.07299 11.5937 6.53625
Ar 12.7046 8.73084 6.14502
Ar 13.2815 9.56234 7.0198
Ar 2.48503 9.50106 7.17567
Ar 5.28393 9.17908 5.30838
Ar 13.8509 13.1645 4.93642
Ar 2.5253 9.48921 4.96356
Ar 4.0907 9.40922 9.46281
Ar 5.80929 11.5889 6.74278
Ar 14.3833 9.45138 7.02371
Ar 13.9816 10.4296 7.46293
Ar 3.25185 8.74765 5.83493
Ar 4.02947 12.6335 7.49016
Ar 2.78878 8.60754 6.71787
Ar 4.26612 8.43242 7.82259
Ar 4.728 7.58271 5.3619
Ar 6.38409 6.71062 4.21189
Ar 2.52259 6.82704 4.93254
Ar 3.10379 12.3331 13.6454
Ar 2.04769 10.7528 7.34366
Ar 3.18529 8.22857 7.64381
Ar 1.73729 9.77936 7.88309
Ar 2.78152 12.7032 8.34798
Ar 7.35374 10.7705 8.23129
Ar 4.70628 10.2255 6.7757
Ar 1.58912 9.01835 8.71788
Ar 2.80872 10.1922 7.95367
Ar 3.5875 8.7272 8.58423
Ar 4.2007 8.11924 10.9181
Ar 2.41735 5.71273 9.03298
Ar 3.28939 12.4592 9.25656
Ar 3.9797 7.81316 9.91456
Ar 3.43142 9.24818 7.55894
Ar 2.83404 10.7524 8.84264
Ar 5.43915 8.74886 7.66328
Ar 3.78998 9.78941 8.42607
Ar 3.41107 14.0834 8.37829
Ar 3.07614 7.87321 9.10358
Ar 14.0282 7.2247 8.92019
Ar 2.46827 9.11554 10.2332
Ar 6.87014 7.88637 7.12299
Ar 3.60905 10.4275 9.48007
Ar 2.39916 10.1751 9.73464
Ar 2.90027 8.27043 11.8942
Ar 5.05289 11.0841 9.65825
Ar 14.4151 12.0621 6.13983
Ar 13.7018 11.0004 8.43137
Ar 1.75741 12.5455 8.04156
Ar 5.24995 11.1484 11.7422
Ar 14.3387 8.92222 13.1944
Ar 3.35702 6.23979 10.9405
Ar 4.57533 7.24235 9.37538
Ar 3.12776 9.53779 11.3018
Ar 3.0569 7.07207 9.80601
Ar 3.99764 12.2991 11.8258
Ar 4.10563 11.0217 11.8505
Ar 4.90645 8.88953 11.4064
Ar 14.0226 14.117 11.2654
Ar 3.2474 12.8044 12.683
Ar 3.69347 12.1155 10.1952
Ar 4.2547 12.7574 10.8767
Ar 2.06937 6.68077 9.79202
Ar 2.1829 7.85282 11.1774
Ar 1.75855 6.93249 11.8199
Ar 2.62988 6.17271 11.7516
Ar 13.9941 11.123 11.9972
Ar 4.0158 11.1614 10.3257
Ar 4.80803 6.19784 10.5383
Ar 5.74382 10.2375 11.1885
Ar 1.7818 10.2942 6.47665
Ar 1.70197 8.45485 10.4986
Ar 4.27747 6.91714 11.1826
Ar 2.84586 12.3551 11.8107
Ar 1.70957 4.36765 12.4788
Ar 1.77104 8.05185 12.0634
Ar 4.39442 5.64294 12.3872
Ar 2.47883 7.95686 13.7365
Ar 3.88342 7.74036 11.8084
Ar 2.40334 11.8758 1.96406
Ar 2.16177 8.98737 11.3192
Ar 4.90217 4.84604 12.8559
Ar 13.5546 11.4648 14.3653
Ar 2.39055 10.0941 10.7832
Ar 13.9009 9.17052 10.4064
Ar 4.23397 8.77687 13.3243
Ar 12.6341 12.1068 9.60015
Ar 2.7277 3.66802 14.3012
Ar 6.4509 7.90336 12.5305
Ar 6.39359 6.49554 10.6964
Ar 2.33611 5.95823 13.5069
Ar 13.8789 8.4291 12.4184
Ar 4.57916 7.24387 12.3545
Ar 3.74984 10.4916 14.0063
Ar 13.4927 13.3785 13.1986
Ar 1.53576 7.785 13.038
Ar 5.22901 12.4542 12.8669
Ar 4.36037 14.0765 13.7948
Ar 3.65699 12.7868 4.77809
Ar 2.67322 11.1728 3.27752
Ar 14.4741 10.0503 2.24519
Ar 3.66612 13.2568 13.6381
Ar 14.2124 13.26 14.0329
Ar 1.88241 1.62517 4.5383
Ar 3.18525 11.5676 5.00664
Ar 3.6538 13.0574 2.58749
Ar 13.4996 2.09616 14.1955
Ar 3.8729 1.80303 4.19012
Ar 4.76124 11.7463 3.79517
Ar 6.43272 13.5266 2.57262
Ar 2.60933 12.449 4.64365
Ar 2.27354 9.88915 11.8513
Ar 3.88477 7.93006 2.29718
Ar 5.3055 9.7969 2.13702
Ar 12.2652 13.8406 5.16862
Ar 4.58569 12.7357 4.22541
Ar 4.70857 11.6506 2.69546
Ar 4.40477 11.3675 14.4803
Ar 1.59825 8.78542 3.57994
Ar 3.10805 11.1235 2.34002
Ar 4.99175 3.24308 2.71409
Ar 5.37022 13.682 2.62491
Ar 3.8618 11.9951 2.23402
Ar 3.56964 13.4096 3.83586
Ar 5.72537 1.71137 7.23283
Ar 6.43551 12.3876 6.09766
Ar 11.9882 3.91784 2.87485
Ar 3.52923 1.75548 6.74877
Ar 3.6994 13.3435 5.7829
Ar 5.42833 13.978 5.1959
Ar 4.16657 2.22605 3.27107
Ar 4.7886 2.32528 4.21992
Ar 6.4939 3.08209 3.75402
Ar 3.19377 12.6188 1.65077
Ar 3.16893 2.34802 3.52042
Ar 4.53455 13.3714 3.26005
Ar 4.46287 9.32364 7.25071
Ar 4.22731 13.7157 7.73506
Ar 1.71134 12.715 5.28514
Ar 3.30154 13.9794 2.33273
Ar 1.48622 13.1397 4.1182
Ar 4.08258 11.5626 7.75123
Ar 5.48863 2.26108 3.03854
Ar 4.35094 13.9753 2.42774
Ar 2.05942 2.22033 3.57555
Ar 7.22839 1.57045 4.5557
Ar 11.8734 11.9708 5.27361
Ar 4.55621 2.03018 6.01251
Ar 2.07708 11.8462 7.14032
Ar 3.20017 8.51323 3.69655
Ar 14.0524 12.4222 3.45405
Ar 3.44235 10.9355 4.06438
Ar 5.79637 10.5582 7.86349
Ar 5.8389 12.6018 6.98293
Ar 11.8858 12.5884 7.05217
Ar 3.21646 12.9187 6.63312
Ar 4.06908 11.4707 5.66099
Ar 13.965 13.7391 5.82411
Ar 13.0702 11.9244 3.36013
Ar 13.4757 11.0434 4.98223
Ar 5.15076 9.52857 9.41599
Ar 4.95228 11.0708 7.35745
Ar 12.3717 11.0362 5.02969
Ar 2.45005 12.7061 3.62469
Ar 5.93318 10.583 6.70086
Ar 7.39934 13.9753 5.3289
Ar 11.1712 12.4734 6.2698
Ar 12.8648 13.5552 6.05145
Ar 3.49583 9.6434 5.43551
Ar 4.813 13.3773 8.67691
Ar 3.7924 12.9764 8.49201
Ar 2.75877 1.8909 6.14839
Ar 6.48618 9.74841 10.4112
Ar 4.96208 11.1623 6.21735
Ar 2.36183 13.0745 7.16073
Ar 2.7314 13.149 5.49352
Ar 2.81025 14.1565 7.30416
Ar 4.54844 10.3504 8.99534
Ar 2.07497 2.36952 8.59088
Ar 3.91995 1.72962 7.73878
Ar 1.83605 14.4634 7.95108
Ar 6.7181 11.2009 6.2696
Ar 4.45957 10.1418 10.0897
Ar 4.16948 12.4738 13.0285
Ar 3.20437 11.449 9.54268
Ar 4.82911 12.0247 10.1369
Ar 3.36206 11.8412 8.44907
Ar 4.86872 11.2158 8.45648
Ar 6.9414 10.5957 10.8525
Ar 5.55529 11.8969 7.83815
Ar 2.97307 10.7333 5.66789
Ar 4.35437 12.6881 9.37213
Ar 3.29214 13.303 7.63513
Ar 4.00254 11.0658 6.80985
Ar 13.1844 11.2544 9.36016
Ar 2.82086 13.8584 12.4807
Ar 3.84384 10.3754 10.999
Ar 4.17784 11.5999 9.1677
Ar 14.319 2.43461 7.73917
Ar 14.456 12.6723 7.03877
Ar 3.40389 11.6152 11.2052
Ar 3.37574 1.71997 10.7106
Ar 13.3454 11.8887 10.7507
Ar 1.55161 13.8389 8.74875
Ar 13.5323 13.7697 10.4011
Ar 5.04941 2.48686 6.83158
Ar 2.99664 11.1523 7.68717
Ar 3.01706 10.6732 11.6615
Ar 3.97314 11.5423 13.5333
Ar 4.33952 1.94081 11.1081
Ar 12.7228 13.0567 8.67124
Ar 3.64454 9.61361 13.0281
Ar 2.01719 12.998 9.07587
Ar 3.61488 13.2376 9.9982
Ar 2.66884 11.8766 10.3541
Ar 1.90162 11.0386 2.44236
Ar 5.3999 14.0758 13.7019
Ar 5.42941 1.82671 8.67038
Ar 14.2266 11.0627 5.72331
Ar 4.7338 9.98792 11.5318
Ar 4.62279 11.5174 12.6228
Ar 5.68181 8.67303 8.92671
Ar 1.60497 1.95267 14.0244
Ar 4.78343 13.1024 13.6394
Ar 14.4601 10.2153 12.4093
Ar 5.62402 11.0708 13.0538
Ar 2.37128 12.0391 9.24628
Ar 3.61709 2.06659 8.6244
Ar 5.64576 4.09596 13.0551
Ar 2.57993 2.16329 13.8796
Ar 3.35373 9.69791 10.2431
Ar 2.96721 9.21235 12.2911
Ar 5.06344 12.3992 11.7984
Ar 4.46312 13.2504 12.4294
Ar 14.0242 1.80286 8.534
Ar 14.4212 11.6418 12.8701
Ar 3.69555 14.2718 3.19356
Ar 6.98619 14.4936 12.6571
Ar 13.1627 2.04271 9.16785
Ar 1.76736 13.5108 10.6684
Ar 6.90509 2.18994 9.83026
Ar 6.2612 3.66089 11.1999
Ar 13.8243 10.8865 13.5411
Ar 14.303 9.94443 13.5448
Ar 4.73815 2.10262 12.3667
Ar 1.9738 10.7842 13.3536
Ar 14.1324 8.66304 11.3617
Ar 14.0428 13.9679 2.66123
Ar 4.60039 12.7753 2.15009
Ar 5.77284 12.7835 2.24323
Ar 13.7667 12.3387 11.7161
Ar 13.6886 13.3669 3.53826
Ar 2.45992 12.9459 2.4054
Ar 7.46054 13.5307 14.0048
Ar 5.40671 2.60777 2.02521
Ar 6.36857 3.82036 13.8494
Ar 6.77453 11.2394 2.94071
Ar 7.12776 2.2302 3.68412
Ar 8.72834 2.57372 11.9832
Ar 7.27427 5.02466 1.90983
Ar 6.80563 14.3293 2.00433
Ar 5.59633 4.01993 2.59935
Ar 7.75771 3.99934 2.02493
Ar 4.91985 3.03107 12.9118
Ar 4.9663 4.04855 3.52445
Ar 7.05702 3.32483 13.236
Ar 6.92668 11.3345 13.9342
Ar 7.48504 3.93786 12.4519
Ar 7.97038 2.44637 4.58882
Ar 2.61375 1.54632 2.95936
Ar 5.72722 4.56099 14.3442
Ar 7.43359 4.60865 4.61925
Ar 6.83132 4.88128 13.9228
Ar 6.74603 3.94841 2.68193
Ar 5.93137 6.57517 1.67299
Ar 4.70793 4.67299 14.1334
Ar 5.94972 7.68463 1.56985
Ar 8.73029 4.63713 3.19486
Ar 5.6235 12.2436 4.18503
Ar 6.64604 3.74329 4.64534
Ar 7.4872 13.6892 2.53258
Ar 4.63269 13.9617 5.96443
Ar 4.75073 3.86515 1.87624
Ar 7.57371 3.14313 3.83993
Ar 3.5862 3.59715 12.2463
Ar 6.98951 3.23861 1.82213
Ar 8.41442 2.04599 2.30615
Ar 5.44091 3.01862 3.82858
Ar 6.91841 6.03914 3.53882
Ar 7.64194 5.18123 3.77525
Ar 2.87659 14.4555 4.00302
Ar 5.62641 11.3237 3.34791
Ar 6.22922 1.84539 5.00035
Ar 14.5121 3.13968 3.89591
Ar 7.1856 1.97441 5.49971
Ar 7.10768 2.63598 6.47139
Ar 6.87486 2.96767 7.58484
Ar 7.80375 3.63623 4.82691
Ar 7.39496 6.45187 4.50178
Ar 6.89134 5.50956 4.47111
Ar 8.17994 3.89243 5.87423
Ar 9.26982 2.55628 3.49427
Ar 7.79746 13.4616 6.87717
Ar 4.59927 3.13214 6.03304
Ar 5.55003 4.84157 5.20749
Ar 5.49344 5.6787 5.93383
Ar 9.54842 4.68962 5.11887
Ar 8.74089 2.48511 5.43473
Ar 4.89362 2.17943 7.88979
Ar 7.07873 4.0466 7.3916
Ar 7.71528 2.97381 5.63425
Ar 6.94614 4.61699 6.44365
Ar 7.18423 3.95733 5.63834
Ar 8.07882 4.20797 3.90685
Ar 5.4025 3.48359 6.57575
Ar 3.55477 13.8785 4.79245
Ar 2.2399 11.6328 8.23073
Ar 6.44577 3.70466 6.48466
Ar 4.15134 2.43154 5.10801
Ar 7.87935 1.8844 9.20684
Ar 2.32074 5.19699 7.97056
Ar 7.96179 1.99889 6.22381
Ar 7.65164 4.92349 5.7279
Ar 5.36731 4.13891 8.28822
Ar 4.49731 4.01123 9.03995
Ar 8.5489 2.95486 6.45343
Ar 3.98275 4.30441 5.90153
Ar 3.74558 3.44018 10.197
Ar 5.2904 12.0034 9.13874
Ar 7.30235 14.2753 6.45322
Ar 9.64694 4.74333 8.03197
Ar 9.58207 1.82298 5.22538
Ar 6.52777 4.51089 8.18119
Ar 8.86624 2.08704 7.15616
Ar 8.50326 13.5035 7.72837
Ar 6.07137 3.77651 7.42622
Ar 7.25179 5.78039 9.42369
Ar 8.90026 1.97488 9.59943
Ar 6.06736 2.57757 10.3745
Ar 4.37969 3.74352 6.86909
Ar 5.55081 14.471 6.22137
Ar 6.05796 11.2395 9.27682
Ar 5.52877 2.73728 5.89401
Ar 8.1491 12.5301 9.62886
Ar 6.45048 2.31382 8.73817
Ar 5.68411 5.80898 10.8768
Ar 6.55647 4.2047 9.19769
Ar 4.42137 5.03099 9.59942
Ar 6.38358 6.2604 9.68167
Ar 9.20509 3.89761 9.01504
Ar 5.00499 14.1871 10.73
Ar 8.21355 12.0042 11.8947
Ar 6.43248 3.14862 9.60197
Ar 5.01134 3.97524 5.59322
Ar 8.69556 14.1563 8.85561
Ar 5.42287 3.2691 11.7585
Ar 7.29912 5.70956 10.4633
Ar 4.62608 4.1263 10.0498
Ar 8.39488 2.81089 9.06107
Ar 7.25289 6.68962 10.1003
Ar 6.1566 5.17388 9.13389
Ar 9.51075 8.04126 8.81515
Ar 7.01895 1.99188 10.8136
Ar 6.88733 12.0065 10.8713
Ar 7.3785 11.2656 10.2358
Ar 6.47829 4.12466 10.2963
Ar 5.60892 2.66044 9.34312
Ar 7.29849 4.72858 9.79995
Ar 8.05232 6.36971 12.0787
Ar 6.24827 14.3772 8.07202
Ar 6.97537 3.08989 10.5553
Ar 5.87635 5.15691 13.4309
Ar 9.34902 3.13433 13.59
Ar 6.0859 6.28182 11.7402
Ar 5.96955 1.72938 9.7002
Ar 9.89485 14.4141 12.9984
Ar 7.91772 2.70494 11.1025
Ar 7.82104 3.84275 10.6618
Ar 8.54289 5.40097 12.0753
Ar 10.7405 4.45301 10.9974
Ar 6.83951 6.39045 13.8871
Ar 8.2555 3.51984 11.8154
Ar 8.81176 2.35326 10.5658
Ar 9.74655 4.07276 12.5507
Ar 5.51502 3.55936 10.346
Ar 6.76412 5.66513 13.1575
Ar 4.96635 2.14498 10.2615
Ar 5.49343 13.2812 12.2025
Ar 6.39042 12.9294 10.5619
Ar 4.62377 2.75709 13.8886
Ar 7.32757 3.66803 9.74233
Ar 8.89959 3.40387 12.6314
Ar 9.03312 5.40498 14.3858
Ar 6.76403 4.43396 11.7906
Ar 10.179 3.78922 13.7893
Ar 2.09531 4.11039 11.448
Ar 4.60296 2.03469 2.38249
Ar 9.45795 2.44046 12.7714
Ar 3.64796 3.82362 3.78623
Ar 6.7104 4.48789 12.9186
Ar 6.41541 2.35498 1.87961
Ar 1.65279 13.7583 5.06866
Ar 6.85549 13.9268 10.9881
Ar 8.09247 3.64995 13.2376
Ar 7.4147 6.58456 2.83328
Ar 10.2431 13.3162 1.82445
Ar 7.38427 2.08057 11.7726
Ar 6.13799 7.24287 13.5064
Ar 8.73309 5.15568 13.3977
Ar 4.24707 1.96875 13.296
Ar 3.79693 5.73748 3.4062
Ar 5.6112 7.20232 12.1494
Ar 8.21288 1.84879 13.9689
Ar 3.53922 6.42223 1.69058
Ar 8.38407 8.25428 4.40118
Ar 6.61065 4.99934 3.35274
Ar 4.79956 10.6315 2.98658
Ar 6.35963 5.6537 1.50534
Ar 7.3436 10.4756 5.54808
Ar 2.26347 5.52072 2.24747
Ar 3.86451 6.74762 2.71872
Ar 5.94905 6.44406 3.2876
Ar 3.70204 3.36615 13.9838
Ar 7.52928 7.67012 2.75699
Ar 4.88104 6.59716 3.08815
Ar 2.79561 6.49313 12.7589
Ar 5.91322 10.4666 2.73391
Ar 6.61239 7.43407 3.32388
Ar 5.53147 3.85229 4.5098
Ar 6.12726 3.10029 2.67912
Ar 6.79874 7.05668 5.16635
Ar 4.72491 6.75915 2.01143
Ar 6.01518 4.06462 3.5586
Ar 7.27881 9.83158 3.90701
Ar 5.63401 7.48883 3.59388
Ar 7.28221 7.56262 13.2911
Ar 6.74024 8.79363 1.5408
Ar 4.04167 7.84918 3.69476
Ar 5.10734 4.85948 4.23465
Ar 8.43351 4.5585 5.08082
Ar 6.14851 5.97782 5.05176
Ar 5.65608 8.20705 2.7482
Ar 6.92478 7.76501 4.27726
Ar 6.74997 8.18305 5.26239
Ar 6.36926 9.89274 1.79821
Ar 7.76455 8.22007 6.80516
Ar 4.60223 6.64034 4.88024
Ar 5.13037 5.71124 4.81411
Ar 8.21824 6.4189 6.65849
Ar 6.31575 8.46185 3.64828
Ar 5.64 6.98559 5.10651
Ar 4.84534 5.70462 3.62738
Ar 6.4224 9.56979 6.64691
Ar 8.4174 8.15725 8.46254
Ar 9.14363 9.77123 2.83769
Ar 6.44275 5.60674 6.37296
Ar 8.20368 5.56649 7.28881
Ar 9.00594 5.65217 7.99198
Ar 6.49098 8.78242 7.52691
Ar 8.49271 5.57328 5.95212
Ar 7.15671 5.94072 5.51513
Ar 7.46175 5.66455 6.54145
Ar 8.55317 7.75264 7.48657
Ar 6.92084 7.18315 8.02138
Ar 7.43748 4.55163 8.76919
Ar 8.17138 3.77598 8.65868
Ar 9.10047 4.70922 9.66813
Ar 4.36889 7.34802 6.42509
Ar 5.60437 6.34981 6.81852
Ar 8.09336 4.56659 7.79308
Ar 6.28517 9.16682 5.60511
Ar 5.01073 7.12601 7.35299
Ar 8.57611 9.10549 5.15401
Ar 6.36581 5.83735 7.44283
Ar 6.49224 8.25143 9.3926
Ar 7.83486 8.8949 8.97636
Ar 7.94075 5.48209 8.33392
Ar 8.2903 6.23766 10.8825
Ar 7.32932 6.77121 6.24658
Ar 7.89669 7.07598 9.27185
Ar 5.86995 7.7671 7.39927
Ar 5.92645 8.49312 6.6607
Ar 6.3849 5.26721 10.2662
Ar 8.29328 7.00215 13.0283
Ar 10.9174 5.43151 10.3803
Ar 3.95551 4.65824 10.6202
Ar 7.36862 7.73613 9.95794
Ar 7.04055 5.98151 12.148
Ar 3.24345 8.60417 10.811
Ar 7.36186 7.91148 8.79471
Ar 7.74044 5.57513 14.0732
Ar 6.26212 5.21052 12.2793
Ar 7.69989 5.56204 11.4212
Ar 9.04266 5.28444 11.1412
Ar 8.21302 8.06917 12.9699
Ar 7.29775 6.6022 12.9672
Ar 9.07778 4.20201 11.6671
Ar 7.41325 6.23055 7.50863
Ar 6.70734 7.12478 2.24714
Ar 6.33001 7.92711 11.4644
Ar 3.48068 4.46356 14.152
Ar 7.23756 4.7131 10.8623
Ar 6.17883 4.93266 2.29616
Ar 6.66294 5.45303 11.339
Ar 9.42943 5.08701 12.56
Ar 9.1774 6.64434 9.58754
Ar 2.49023 6.45226 1.48985
Ar 3.95864 5.63463 10.256
Ar 7.9185 5.75773 12.9916
Ar 7.67625 4.52322 2.94652
Ar 5.531 5.88149 2.52598
Ar 7.37973 3.93408 13.9921
Ar 3.07933 5.15833 10.7442
Ar 6.95824 7.4059 14.2623
Ar 5.53465 5.00447 3.20078
Ar 1.48986 2.88067 2.82505
Ar 3.56882 7.97522 13.6237
Ar 9.09976 9.54071 14.1936
Ar 3.15844 4.38952 11.5703
Ar 8.57507 3.62977 14.365
Ar 7.68293 7.16177 3.69069
Ar 3.40647 6.04276 13.706
Ar 3.0937 7.05059 13.7761
Ar 8.59062 7.80377 3.15903
Ar 7.32475 8.52304 12.6917
Ar 5.7527 6.24686 13.7143
Ar 5.17594 7.07239 14.0875
Ar 4.98735 7.76203 1.92477
Ar 5.89678 9.29515 13.8801
Ar 7.83463 8.78477 2.58549
Ar 5.14931 8.41199 3.64511
Ar 5.19703 6.85689 13.0407
Ar 9.85938 9.2714 2.23388
Ar 3.06817 8.90975 13.5487
Ar 6.477 12.6423 12.6196
Ar 10.9239 11.5033 13.6055
Ar 5.25111 9.34521 4.1829
Ar 7.26804 9.48756 2.06446
Ar 4.06677 8.83857 3.09333
Ar 6.85896 10.0999 2.94896
Ar 7.83693 7.42433 4.83957
Ar 9.01054 10.0051 4.87532
Ar 9.05293 11.6314 14.1699
Ar 6.17508 9.61077 3.69783
Ar 9.52575 10.8282 2.91942
Ar 5.67771 7.17047 2.48916
Ar 9.09886 10.5665 5.71117
Ar 6.44922 10.8735 4.91257
Ar 5.20577 9.4402 3.13499
Ar 7.18211 10.4589 14.4508
Ar 6.80055 9.73666 4.86507
Ar 6.38636 10.6636 3.72964
Ar 5.88292 11.2538 5.65717
Ar 7.62312 10.6429 2.3902
Ar 3.7897 10.6773 4.95672
Ar 6.33791 10.2284 5.80696
Ar 8.86168 8.94209 2.20366
Ar 2.66273 10.5803 4.66612
Ar 7.38499 12.0161 6.07106
Ar 7.94797 9.69886 3.08018
Ar 4.4956 10.7266 4.10267
Ar 2.18538 8.59899 5.56368
Ar 6.0612 12.0403 13.3875
Ar 6.0996 8.8717 4.60456
Ar 7.03288 9.08797 3.14513
Ar 8.09814 9.2069 4.08375
Ar 6.20121 6.57652 5.99147
Ar 6.79319 9.00243 8.5252
Ar 9.8745 9.18388 10.6675
Ar 5.28687 8.27301 14.0207
Ar 3.92925 13.8024 6.72242
Ar 7.72524 12.5405 4.34909
Ar 5.43651 7.46921 6.42403
Ar 7.65669 9.39708 8.06007
Ar 7.57773 7.82895 5.84298
Ar 2.97703 10.581 6.76044
Ar 7.87286 10.2385 7.46319
Ar 8.94702 10.2898 7.73017
Ar 3.35815 12.0248 3.92335
Ar 6.83468 14.2794 9.09097
Ar 9.52006 11.3473 9.93695
Ar 6.52475 7.5573 6.17721
Ar 5.33746 9.28994 6.37827
Ar 4.93153 8.11739 6.9991
Ar 8.18192 10.1873 8.49447
Ar 7.21565 9.51252 5.9107
Ar 8.69716 9.27604 8.42105
Ar 5.55003 9.74031 7.29333
Ar 7.0648 9.0372 9.76658
Ar 8.97108 12.206 8.99939
Ar 6.38426 6.33939 8.5755
Ar 5.99833 9.59063 8.25538
Ar 7.21734 5.09099 7.45299
Ar 5.12163 7.93972 8.24988
Ar 6.25305 9.66386 9.37282
Ar 9.04487 8.53463 10.484
Ar 4.93181 10.4086 12.5002
Ar 6.25808 11.1972 10.3633
Ar 8.9523 11.0438 8.89802
Ar 6.63074 8.45418 10.5301
Ar 7.97265 7.22432 8.22928
Ar 8.18072 9.12107 11.2455
Ar 7.32872 9.82736 9.02783
Ar 9.97324 8.54277 9.80142
Ar 7.18237 9.19209 10.9404
Ar 4.69539 8.73452 10.1747
Ar 4.78476 8.44905 5.99312
Ar 8.78353 9.73021 10.6103
Ar 4.08995 9.32065 10.8366
Ar 5.96241 4.71982 11.0658
Ar 8.19942 8.07848 9.52431
Ar 5.69634 10.3191 10.0061
Ar 7.37426 8.32385 11.5586
Ar 7.71412 9.47232 13.1109
Ar 2.9216 10.2441 12.6602
Ar 6.6777 11.161 12.9343
Ar 6.80259 10.0029 12.749
Ar 6.58619 8.87203 11.8685
Ar 6.33741 8.30757 13.6752
Ar 8.32757 7.13853 10.2943
Ar 4.851 14.1548 12.7895
Ar 8.4811 8.88437 13.5214
Ar 9.11544 6.46072 3.64927
Ar 5.94693 11.829 12.3058
Ar 4.94817 11.9258 13.6906
Ar 5.58564 11.8866 10.9648
Ar 5.82564 8.90439 10.0233
Ar 6.25992 7.48828 10.1521
Ar 7.68376 7.5378 12.2552
Ar 3.68073 6.46446 11.9691
Ar 5.87918 13.2248 13.2472
Ar 8.89429 7.2335 12.1636
Ar 3.37449 7.51562 10.7596
Ar 4.76268 10.8012 13.6605
Ar 7.67654 12.2992 14.1294
Ar 6.30336 6.56611 12.763
Ar 8.33074 9.90154 2.0692
Ar 9.00716 4.12498 13.4141
Ar 8.70634 11.0989 2.06348
Ar 7.81888 7.06642 1.94028
Ar 10.3288 8.65558 4.41167
Ar 6.37126 9.02135 12.9216
Ar 5.49198 10.257 14.1732
Ar 6.72932 12.3323 2.49267
Ar 9.16023 11.7723 2.80997
Ar 5.88901 11.7065 2.43323
Ar 7.85179 14.1343 13.2123
Ar 8.50198 2.54524 13.2726
Ar 5.97709 13.1393 3.42877
Ar 8.76306 12.7094 14.1293
Ar 2.77341 13.5898 3.19396
Ar 10.1786 2.02846 11.9555
Ar 9.69025 13.9595 13.956
Ar 4.78229 10.1262 7.93621
Ar 6.41439 10.9614 1.91566
Ar 8.86879 11.9817 4.40107
Ar 6.75143 12.7315 13.7849
Ar 4.9926 13.6266 1.54542
Ar 8.31737 13.2561 5.12634
Ar 5.32845 13.4035 4.19773
Ar 4.8398 14.4772 3.31126
Ar 5.22838 13.6429 6.86894
Ar 3.28728 11.5729 14.365
Ar 6.28338 13.2226 5.09346
Ar 8.18661 9.99643 5.84734
Ar 3.67999 9.06137 2.08534
Ar 5.65547 11.271 14.1408
Ar 9.29522 10.1972 3.7751
Ar 5.18713 12.0266 1.70304
Ar 5.83037 3.5389 1.7118
Ar 5.56883 11.1878 4.4306
Ar 5.24633 10.8936 2.00996
Ar 6.37403 1.9926 6.13562
Ar 5.68818 13.3476 5.99346
Ar 4.51989 13.4106 5.10064
Ar 6.65841 12.7496 4.2501
Ar 8.62292 3.22901 4.18009
Ar 3.12657 2.00419 4.99294
Ar 4.70695 1.5057 6.9671
Ar 6.84556 12.9878 7.00435
Ar 5.77385 10.0021 4.90138
Ar 5.04708 11.7786 5.13118
Ar 7.87893 11.5065 4.18588
Ar 6.29587 13.9112 6.7543
Ar 7.20842 10.2769 6.6263
Ar 4.41345 13.9088 4.12166
Ar 7.42025 11.7259 7.8838
Ar 6.60727 2.98453 5.61512
Ar 8.33078 1.5986 5.23328
Ar 4.99584 13.0115 7.61706
Ar 6.97673 13.2789 6.05397
Ar 8.62678 12.9778 4.22047
Ar 6.73501 11.9813 7.02888
Ar 6.50776 12.5538 7.87763
Ar 6.82719 10.5258 9.71731
Ar 3.99826 12.1009 6.53751
Ar 7.07708 13.0421 3.31185
Ar 6.41533 11.4279 8.24217
Ar 7.87931 10.6875 9.43566
Ar 9.25506 10.8195 11.0075