LAMMPS (8 Apr 2021)
  using 1 OpenMP thread(s) per MPI task
Reading restart file ...
  restart file = 8 Apr 2021, LAMMPS = 8 Apr 2021
  restoring atom style full from restart
  orthogonal box = (1.4530089 1.4530089 1.4530089) to (14.546991 14.546991 14.546991)
  4 by 4 by 4 MPI processor grid
  restoring pair style lj/cut from restart
  2197 atoms
Finding 1-2 1-3 1-4 neighbors ...
  special bond factors lj:    0        0        0       
  special bond factors coul:  0        0        0       
     0 = max # of 1-2 neighbors
     0 = max # of 1-3 neighbors
     0 = max # of 1-4 neighbors
     1 = max # of special neighbors
  special bonds CPU = 0.053 seconds
  read_restart CPU = 0.109 seconds
Resetting global fix info from restart file:
  fix style: npt, fix ID: 1
All restart file global fix info was re-assigned
Neighbor list info ...
  update every 1 steps, delay 10 steps, check yes
  max neighbors/atom: 2000, page size: 100000
  master list distance cutoff = 2.8
  ghost atom cutoff = 2.8
  binsize = 1.4, bins = 10 10 10
  2 neighbor lists, perpetual/occasional/extra = 1 1 0
  (1) pair lj/cut, perpetual
      attributes: half, newton on
      pair build: half/bin/newton
      stencil: half/bin/3d/newton
      bin: standard
  (2) compute orientorder/atom, occasional
      attributes: full, newton on
      pair build: full/bin
      stencil: full/bin/3d
      bin: standard
Setting up Verlet run ...
  Unit style    : lj
  Current step  : 16000
  Time step     : 0.005
Per MPI rank memory allocation (min/avg/max) = 7.690 | 7.691 | 7.692 Mbytes
Step PotEng KinEng TotEng Temp Press Density c_avql[2] 
   16000   -77180.325         3294   -73886.325            1  0.083521776   0.97862164   0.30280185 
   17000   -78105.046    5770.3111   -72334.735    1.7517641     1.269433   0.98847646   0.30625231 
   18000   -77325.727    6427.2595   -70898.468     1.951202    1.1574565   0.98028683   0.30397298 
   19000   -77485.158     6494.982   -70990.176    1.9717614    1.9773124   0.98446184   0.30478202 
   20000   -77619.162     6221.951   -71397.211     1.888874    1.0425264   0.98279235   0.30532145 
   21000   -77696.905    6644.0075   -71052.898    2.0170029    1.0304179   0.98275017   0.30704653 
Loop time of 2.01853 on 64 procs for 5000 steps with 2197 atoms

Performance: 1070083.818 tau/day, 2477.046 timesteps/s
99.7% CPU use with 64 MPI tasks x 1 OpenMP threads

MPI task timing breakdown:
Section |  min time  |  avg time  |  max time  |%varavg| %total
---------------------------------------------------------------
Pair    | 0.35855    | 0.41004    | 0.46192    |   3.3 | 20.31
Bond    | 0.00096822 | 0.0011103  | 0.001431   |   0.3 |  0.06
Neigh   | 0.14744    | 0.15725    | 0.16889    |   1.2 |  7.79
Comm    | 0.47943    | 0.54186    | 0.6021     |   3.6 | 26.84
Output  | 0.35115    | 0.35135    | 0.35138    |   0.0 | 17.41
Modify  | 0.50459    | 0.51865    | 0.53798    |   1.0 | 25.69
Other   |            | 0.03827    |            |       |  1.90

Nlocal:        34.3281 ave          41 max          28 min
Histogram: 3 3 2 15 8 10 18 3 1 1
Nghost:        650.906 ave         666 max         632 min
Histogram: 3 3 1 3 11 20 4 13 5 1
Neighs:        1483.06 ave        1875 max        1206 min
Histogram: 4 5 10 9 15 13 5 2 0 1
FullNghs:      2966.12 ave        3600 max        2435 min
Histogram: 3 3 7 12 10 15 10 3 0 1

Total # of neighbors = 189832
Ave neighs/atom = 86.405098
Ave special neighs/atom = 0.0000000
Neighbor list builds = 500
Dangerous builds = 495
Total wall time: 0:00:03
