LAMMPS (8 Apr 2021)
  using 1 OpenMP thread(s) per MPI task
Reading restart file ...
  restart file = 8 Apr 2021, LAMMPS = 8 Apr 2021
  restoring atom style full from restart
  orthogonal box = (1.5262820 1.5262820 1.5262820) to (14.473718 14.473718 14.473718)
  4 by 4 by 4 MPI processor grid
  restoring pair style lj/cut from restart
  2197 atoms
Finding 1-2 1-3 1-4 neighbors ...
  special bond factors lj:    0        0        0       
  special bond factors coul:  0        0        0       
     0 = max # of 1-2 neighbors
     0 = max # of 1-3 neighbors
     0 = max # of 1-4 neighbors
     1 = max # of special neighbors
  special bonds CPU = 0.050 seconds
  read_restart CPU = 0.101 seconds
Resetting global fix info from restart file:
  fix style: npt, fix ID: 1
All restart file global fix info was re-assigned
Neighbor list info ...
  update every 1 steps, delay 10 steps, check yes
  max neighbors/atom: 2000, page size: 100000
  master list distance cutoff = 2.8
  ghost atom cutoff = 2.8
  binsize = 1.4, bins = 10 10 10
  2 neighbor lists, perpetual/occasional/extra = 1 1 0
  (1) pair lj/cut, perpetual
      attributes: half, newton on
      pair build: half/bin/newton
      stencil: half/bin/3d/newton
      bin: standard
  (2) compute orientorder/atom, occasional
      attributes: full, newton on
      pair build: full/bin
      stencil: full/bin/3d
      bin: standard
Setting up Verlet run ...
  Unit style    : lj
  Current step  : 16000
  Time step     : 0.005
Per MPI rank memory allocation (min/avg/max) = 7.691 | 7.693 | 7.695 Mbytes
Step PotEng KinEng TotEng Temp Press Density c_avql[2] 
   16000   -80684.383         3294   -77390.383            1   0.98851105    1.0122289   0.29204527 
   17000   -80968.113    1954.4882   -79013.625   0.59334798   0.89620501    1.0156155   0.29269193 
   18000   -80990.026    1993.2045   -78996.822   0.60510156   0.93477449    1.0160087   0.29276134 
   19000   -81029.653    1925.4197   -79104.233   0.58452327   0.70901347    1.0156881   0.29297405 
   20000   -80954.799    1943.7213   -79011.078   0.59007933    1.2504134    1.0167423   0.29324537 
   21000    -81011.51    1965.9151   -79045.595   0.59681698    1.6478836     1.018764    0.2929756 
Loop time of 2.02389 on 64 procs for 5000 steps with 2197 atoms

Performance: 1067252.494 tau/day, 2470.492 timesteps/s
99.7% CPU use with 64 MPI tasks x 1 OpenMP threads

MPI task timing breakdown:
Section |  min time  |  avg time  |  max time  |%varavg| %total
---------------------------------------------------------------
Pair    | 0.35995    | 0.42603    | 0.48923    |   3.8 | 21.05
Bond    | 0.00098968 | 0.0011154  | 0.0014203  |   0.2 |  0.06
Neigh   | 0.13804    | 0.15169    | 0.16102    |   1.3 |  7.50
Comm    | 0.4718     | 0.53277    | 0.62045    |   4.1 | 26.32
Output  | 0.35266    | 0.35301    | 0.35304    |   0.0 | 17.44
Modify  | 0.50478    | 0.52049    | 0.54437    |   1.3 | 25.72
Other   |            | 0.03879    |            |       |  1.92

Nlocal:        34.3281 ave          39 max          29 min
Histogram: 2 1 4 5 11 10 14 4 7 6
Nghost:        667.703 ave         683 max         647 min
Histogram: 1 1 2 7 6 18 14 8 2 5
Neighs:        1570.00 ave        1843 max        1285 min
Histogram: 2 3 3 9 13 14 9 3 7 1
FullNghs:      3140.00 ave        3548 max        2636 min
Histogram: 2 2 3 8 10 12 10 6 6 5

Total # of neighbors = 200960
Ave neighs/atom = 91.470187
Ave special neighs/atom = 0.0000000
Neighbor list builds = 473
Dangerous builds = 241
Total wall time: 0:00:02
