LAMMPS (8 Apr 2021)
  using 1 OpenMP thread(s) per MPI task
Reading restart file ...
  restart file = 8 Apr 2021, LAMMPS = 8 Apr 2021
  restoring atom style full from restart
  orthogonal box = (1.5009619 1.5009619 1.5009619) to (14.499038 14.499038 14.499038)
  4 by 4 by 4 MPI processor grid
  restoring pair style lj/cut from restart
  2197 atoms
Finding 1-2 1-3 1-4 neighbors ...
  special bond factors lj:    0        0        0       
  special bond factors coul:  0        0        0       
     0 = max # of 1-2 neighbors
     0 = max # of 1-3 neighbors
     0 = max # of 1-4 neighbors
     1 = max # of special neighbors
  special bonds CPU = 0.049 seconds
  read_restart CPU = 0.119 seconds
Resetting global fix info from restart file:
  fix style: npt, fix ID: 1
All restart file global fix info was re-assigned
Neighbor list info ...
  update every 1 steps, delay 10 steps, check yes
  max neighbors/atom: 2000, page size: 100000
  master list distance cutoff = 2.8
  ghost atom cutoff = 2.8
  binsize = 1.4, bins = 10 10 10
  2 neighbor lists, perpetual/occasional/extra = 1 1 0
  (1) pair lj/cut, perpetual
      attributes: half, newton on
      pair build: half/bin/newton
      stencil: half/bin/3d/newton
      bin: standard
  (2) compute orientorder/atom, occasional
      attributes: full, newton on
      pair build: full/bin
      stencil: full/bin/3d
      bin: standard
Setting up Verlet run ...
  Unit style    : lj
  Current step  : 16000
  Time step     : 0.005
Per MPI rank memory allocation (min/avg/max) = 7.691 | 7.692 | 7.693 Mbytes
Step PotEng KinEng TotEng Temp Press Density c_avql[2] 
   16000   -79282.245         3294   -75988.245            1     1.004362    1.0004441   0.29127939 
   17000   -78661.801    4031.1718   -74630.629    1.2237923     0.923014   0.99379594   0.29058961 
   18000   -78585.416    4093.8121   -74491.604    1.2428088   0.61999733   0.99212719   0.29146793 
   19000   -78595.803    4164.3381   -74431.464    1.2642192   0.82062941   0.99292426   0.29251876 
   20000   -78792.395    4157.0822   -74635.313    1.2620165    1.0578312   0.99531491   0.29164005 
   21000   -78711.191    4251.7837   -74459.407    1.2907662    1.1352121   0.99486985   0.29182575 
Loop time of 2.02278 on 64 procs for 5000 steps with 2197 atoms

Performance: 1067839.849 tau/day, 2471.852 timesteps/s
99.7% CPU use with 64 MPI tasks x 1 OpenMP threads

MPI task timing breakdown:
Section |  min time  |  avg time  |  max time  |%varavg| %total
---------------------------------------------------------------
Pair    | 0.37366    | 0.41719    | 0.4754     |   3.4 | 20.62
Bond    | 0.00099063 | 0.0011118  | 0.0013974  |   0.2 |  0.05
Neigh   | 0.1491     | 0.15819    | 0.16917    |   1.1 |  7.82
Comm    | 0.46744    | 0.53222    | 0.59029    |   3.7 | 26.31
Output  | 0.37357    | 0.37382    | 0.37384    |   0.0 | 18.48
Modify  | 0.49161    | 0.50533    | 0.52389    |   1.2 | 24.98
Other   |            | 0.03491    |            |       |  1.73

Nlocal:        34.3281 ave          39 max          29 min
Histogram: 1 0 5 10 6 8 17 8 4 5
Nghost:        658.219 ave         670 max         644 min
Histogram: 3 2 1 9 13 11 10 4 8 3
Neighs:        1520.61 ave        1846 max        1280 min
Histogram: 2 7 11 8 15 9 6 2 2 2
FullNghs:      3041.22 ave        3458 max        2567 min
Histogram: 1 3 6 6 13 10 11 7 3 4

Total # of neighbors = 194638
Ave neighs/atom = 88.592626
Ave special neighs/atom = 0.0000000
Neighbor list builds = 500
Dangerous builds = 495
Total wall time: 0:00:02
