LAMMPS (8 Apr 2021)
  using 1 OpenMP thread(s) per MPI task
Reading restart file ...
  restart file = 8 Apr 2021, LAMMPS = 8 Apr 2021
  restoring atom style full from restart
  orthogonal box = (1.4789379 1.4789379 1.4789379) to (14.521062 14.521062 14.521062)
  4 by 4 by 4 MPI processor grid
  restoring pair style lj/cut from restart
  2197 atoms
Finding 1-2 1-3 1-4 neighbors ...
  special bond factors lj:    0        0        0       
  special bond factors coul:  0        0        0       
     0 = max # of 1-2 neighbors
     0 = max # of 1-3 neighbors
     0 = max # of 1-4 neighbors
     1 = max # of special neighbors
  special bonds CPU = 0.043 seconds
  read_restart CPU = 0.108 seconds
Resetting global fix info from restart file:
  fix style: npt, fix ID: 1
All restart file global fix info was re-assigned
Neighbor list info ...
  update every 1 steps, delay 10 steps, check yes
  max neighbors/atom: 2000, page size: 100000
  master list distance cutoff = 2.8
  ghost atom cutoff = 2.8
  binsize = 1.4, bins = 10 10 10
  2 neighbor lists, perpetual/occasional/extra = 1 1 0
  (1) pair lj/cut, perpetual
      attributes: half, newton on
      pair build: half/bin/newton
      stencil: half/bin/3d/newton
      bin: standard
  (2) compute orientorder/atom, occasional
      attributes: full, newton on
      pair build: full/bin
      stencil: full/bin/3d
      bin: standard
Setting up Verlet run ...
  Unit style    : lj
  Current step  : 16000
  Time step     : 0.005
Per MPI rank memory allocation (min/avg/max) = 7.691 | 7.692 | 7.694 Mbytes
Step PotEng KinEng TotEng Temp Press Density c_avql[2] 
   16000   -78416.839         3294   -75122.839            1   0.33482233   0.99034169   0.29401115 
   17000   -78963.637    4062.1407   -74901.496    1.2331939   0.97093295   0.99645815   0.29468768 
   18000   -78939.603    3915.2841   -75024.319    1.1886108    1.5240714   0.99851957   0.29508594 
   19000   -79022.506    4002.6268   -75019.879    1.2151265    1.0944197   0.99763594   0.29449973 
   20000   -78963.693    4070.5257   -74893.167    1.2357394   0.95961595    0.9966458   0.29565236 
   21000   -79108.761    3928.6734   -75180.088    1.1926756    1.4474907   0.99982207   0.29447933 
Loop time of 1.92873 on 64 procs for 5000 steps with 2197 atoms

Performance: 1119908.633 tau/day, 2592.381 timesteps/s
99.8% CPU use with 64 MPI tasks x 1 OpenMP threads

MPI task timing breakdown:
Section |  min time  |  avg time  |  max time  |%varavg| %total
---------------------------------------------------------------
Pair    | 0.37652    | 0.41814    | 0.46615    |   3.6 | 21.68
Bond    | 0.00093579 | 0.0011122  | 0.0016193  |   0.4 |  0.06
Neigh   | 0.15066    | 0.15934    | 0.17032    |   1.2 |  8.26
Comm    | 0.4778     | 0.53169    | 0.58712    |   3.8 | 27.57
Output  | 0.26498    | 0.26526    | 0.26529    |   0.0 | 13.75
Modify  | 0.50336    | 0.51692    | 0.53062    |   0.9 | 26.80
Other   |            | 0.03626    |            |       |  1.88

Nlocal:        34.3281 ave          40 max          29 min
Histogram: 2 4 8 7 12 12 11 3 4 1
Nghost:        659.672 ave         672 max         642 min
Histogram: 1 0 1 9 9 12 11 11 6 4
Neighs:        1531.86 ave        1763 max        1297 min
Histogram: 3 3 9 6 12 8 8 6 6 3
FullNghs:      3063.72 ave        3599 max        2560 min
Histogram: 1 4 8 7 13 13 10 5 2 1

Total # of neighbors = 196078
Ave neighs/atom = 89.248066
Ave special neighs/atom = 0.0000000
Neighbor list builds = 500
Dangerous builds = 495
Total wall time: 0:00:02
