LAMMPS (8 Apr 2021)
  using 1 OpenMP thread(s) per MPI task
Reading restart file ...
  restart file = 8 Apr 2021, LAMMPS = 8 Apr 2021
  restoring atom style full from restart
  orthogonal box = (1.4775412 1.4775412 1.4775412) to (14.522459 14.522459 14.522459)
  4 by 4 by 4 MPI processor grid
  restoring pair style lj/cut from restart
  2197 atoms
Finding 1-2 1-3 1-4 neighbors ...
  special bond factors lj:    0        0        0       
  special bond factors coul:  0        0        0       
     0 = max # of 1-2 neighbors
     0 = max # of 1-3 neighbors
     0 = max # of 1-4 neighbors
     1 = max # of special neighbors
  special bonds CPU = 0.049 seconds
  read_restart CPU = 0.100 seconds
Resetting global fix info from restart file:
  fix style: npt, fix ID: 1
All restart file global fix info was re-assigned
Neighbor list info ...
  update every 1 steps, delay 10 steps, check yes
  max neighbors/atom: 2000, page size: 100000
  master list distance cutoff = 2.8
  ghost atom cutoff = 2.8
  binsize = 1.4, bins = 10 10 10
  2 neighbor lists, perpetual/occasional/extra = 1 1 0
  (1) pair lj/cut, perpetual
      attributes: half, newton on
      pair build: half/bin/newton
      stencil: half/bin/3d/newton
      bin: standard
  (2) compute orientorder/atom, occasional
      attributes: full, newton on
      pair build: full/bin
      stencil: full/bin/3d
      bin: standard
Setting up Verlet run ...
  Unit style    : lj
  Current step  : 16000
  Time step     : 0.005
Per MPI rank memory allocation (min/avg/max) = 7.691 | 7.692 | 7.694 Mbytes
Step PotEng KinEng TotEng Temp Press Density c_avql[2] 
   16000   -78356.055         3294   -75062.055            1   0.27071631   0.98970561    0.2936676 
   17000   -79516.381     3708.779   -75807.602    1.1259195   0.77784662    1.0012079   0.29482105 
   18000   -79473.498    3797.0416   -75676.457    1.1527145    1.1247084    1.0022715   0.29595589 
   19000   -79458.656    3811.7319   -75646.924    1.1571742    1.0979856    1.0017216   0.29633901 
   20000   -79485.635    3673.9153    -75811.72    1.1153356    1.2938235    1.0028696   0.29738764 
   21000   -79481.565    3795.0598   -75686.505    1.1521129   0.82470779    1.0007145   0.29649719 
Loop time of 2.09952 on 64 procs for 5000 steps with 2197 atoms

Performance: 1028804.742 tau/day, 2381.492 timesteps/s
99.7% CPU use with 64 MPI tasks x 1 OpenMP threads

MPI task timing breakdown:
Section |  min time  |  avg time  |  max time  |%varavg| %total
---------------------------------------------------------------
Pair    | 0.37874    | 0.41979    | 0.47359    |   2.8 | 19.99
Bond    | 0.00097704 | 0.001099   | 0.001456   |   0.3 |  0.05
Neigh   | 0.14979    | 0.15878    | 0.16739    |   0.9 |  7.56
Comm    | 0.48414    | 0.53528    | 0.59305    |   3.1 | 25.50
Output  | 0.43216    | 0.43241    | 0.43243    |   0.0 | 20.60
Modify  | 0.5027     | 0.51823    | 0.53283    |   1.0 | 24.68
Other   |            | 0.03393    |            |       |  1.62

Nlocal:        34.3281 ave          39 max          30 min
Histogram: 3 3 5 9 12 15 8 7 1 1
Nghost:        660.703 ave         672 max         649 min
Histogram: 3 3 4 7 13 15 8 6 1 4
Neighs:        1528.80 ave        1816 max        1308 min
Histogram: 3 3 8 17 10 11 7 3 1 1
FullNghs:      3057.59 ave        3499 max        2655 min
Histogram: 3 3 5 9 12 15 8 6 2 1

Total # of neighbors = 195686
Ave neighs/atom = 89.069640
Ave special neighs/atom = 0.0000000
Neighbor list builds = 500
Dangerous builds = 495
Total wall time: 0:00:03
